Program Version,EnergyPlus, Version 22.2.0-c249759bad, YMD=2025.09.21 15:30
1,5,Environment Title[],Latitude[deg],Longitude[deg],Time Zone[],Elevation[m]
2,8,Day of Simulation[],Month[],Day of Month[],DST Indicator[1=yes 0=no],Hour[],StartMinute[],EndMinute[],DayType
3,5,Cumulative Day of Simulation[],Month[],Day of Month[],DST Indicator[1=yes 0=no],DayType  ! When Daily Report Variables Requested
4,2,Cumulative Days of Simulation[],Month[]  ! When Monthly Report Variables Requested
5,1,Cumulative Days of Simulation[] ! When Run Period Report Variables Requested
6,1,Calendar Year of Simulation[] ! When Annual Report Variables Requested
7,1,Environment,Site Outdoor Air Drybulb Temperature [C] !TimeStep
8,1,Environment,Site Outdoor Air Dewpoint Temperature [C] !TimeStep
9,1,Environment,Site Outdoor Air Wetbulb Temperature [C] !TimeStep
10,1,Environment,Site Wind Speed [m/s] !TimeStep
11,1,Environment,Site Wind Direction [deg] !TimeStep
12,1,Environment,Site Diffuse Solar Radiation Rate per Area [W/m2] !TimeStep
13,1,Environment,Site Direct Solar Radiation Rate per Area [W/m2] !TimeStep
14,1,Environment,Site Solar Azimuth Angle [deg] !TimeStep
15,1,Environment,Site Solar Altitude Angle [deg] !TimeStep
16,1,BLOCK `ROOM1` STOREY 0,Zone Mean Air Temperature [C] !TimeStep
17,1,BLOCK `ROOM2` STOREY 0,Zone Mean Air Temperature [C] !TimeStep
18,1,BLOCK `ROOM1` STOREY 0,AFN Node Total Pressure [Pa] !TimeStep
19,1,ExtNode   1,AFN Node Total Pressure [Pa] !TimeStep
20,1,ExtNode   2,AFN Node Total Pressure [Pa] !TimeStep
21,1,DOOR__BLOCK `ROOM1` STOREY 0 WALL 0002,AFN Linkage Node 1 to Node 2 Volume Flow Rate [m3/s] !TimeStep
22,1,DOOR__BLOCK `ROOM1` STOREY 0 WALL 0002,AFN Linkage Node 2 to Node 1 Volume Flow Rate [m3/s] !TimeStep
23,1,WINDOW__BLOCK `ROOM1` STOREY 0 WALL 0001,AFN Linkage Node 1 to Node 2 Volume Flow Rate [m3/s] !TimeStep
24,1,WINDOW__BLOCK `ROOM1` STOREY 0 WALL 0001,AFN Linkage Node 2 to Node 1 Volume Flow Rate [m3/s] !TimeStep
25,1,BLOCK `ROOM1` STOREY 0,AFN Zone Ventilation Sensible Heat Gain Rate [W] !TimeStep
26,1,BLOCK `ROOM1` STOREY 0,AFN Zone Mixing Sensible Heat Gain Rate [W] !TimeStep
27,1,BLOCK `ROOM1` STOREY 0,AFN Zone Ventilation Sensible Heat Loss Rate [W] !TimeStep
28,1,BLOCK `ROOM1` STOREY 0,AFN Zone Mixing Sensible Heat Loss Rate [W] !TimeStep
29,1,BLOCK `ROOM2` STOREY 0,AFN Zone Ventilation Sensible Heat Gain Rate [W] !TimeStep
30,1,BLOCK `ROOM2` STOREY 0,AFN Zone Mixing Sensible Heat Gain Rate [W] !TimeStep
31,1,BLOCK `ROOM2` STOREY 0,AFN Zone Ventilation Sensible Heat Loss Rate [W] !TimeStep
32,1,BLOCK `ROOM2` STOREY 0,AFN Zone Mixing Sensible Heat Loss Rate [W] !TimeStep
33,1,BLOCK `ROOM1` STOREY 0,AFN Zone Ventilation Volume [m3] !TimeStep
34,1,BLOCK `ROOM1` STOREY 0,AFN Zone Mixing Volume [m3] !TimeStep
35,1,BLOCK `ROOM2` STOREY 0,AFN Zone Ventilation Volume [m3] !TimeStep
36,1,BLOCK `ROOM2` STOREY 0,AFN Zone Mixing Volume [m3] !TimeStep
End of Data Dictionary
1,SUMMER,  37.46,-122.11,  -8.00,   1.00
2,1, 7, 1, 0, 1, 0.00,15.00,Saturday
7,18.65
8,13.500000000000002
9,15.506138388388512
10,1.425
11,305.0
12,0.0
13,0.0
14,0.813845992880616
15,-29.37040777546127
16,22.641390895483752
17,26.396274541052478
18,-0.1459371774060448
19,0.0961248433086844
20,0.04148673878413782
21,0.0
22,0.013098156766569988
23,0.01309815995648551
24,0.0
25,0.0
26,0.0
27,62.78209640266013
28,0.0
29,0.0
30,0.0
31,0.0
32,0.0
33,11.958537136962768
34,0.0
35,0.0
36,0.0
2,1, 7, 1, 0, 1,15.00,30.00,Saturday
7,17.6
8,13.2
9,14.95520882365769
10,1.35
11,300.0
12,0.0
13,0.0
14,4.763802213187274
15,-29.225541798861435
16,21.854444806054975
17,26.20912691994121
18,-0.1487939214396987
19,0.09891732140550405
20,0.025072725305628114
21,0.0
22,0.015459458725749664
23,0.015459471186926881
24,0.0
25,0.0
26,0.0
27,79.30455357745132
28,0.0
29,0.0
30,0.0
31,0.0
32,0.0
33,14.127634778896393
34,0.0
35,0.0
36,0.0
2,1, 7, 1, 0, 1,30.00,45.00,Saturday
7,16.55
8,12.899999999999999
9,14.372986587507057
10,1.275
11,295.0
12,0.0
13,0.0
14,8.687533996163891
15,-28.87684189434883
16,21.086123450305934
17,26.024019397253127
18,-0.17784545967976187
19,0.09282511463462728
20,0.004767296049141559
21,0.0
22,0.016894864792729558
23,0.016894872397885244
24,0.0
25,0.0
26,0.0
27,92.73609682189928
28,0.0
29,0.0
30,0.0
31,0.0
32,0.0
33,15.454726950389773
34,0.0
35,0.0
36,0.0
2,1, 7, 1, 0, 1,45.00,60.00,Saturday
7,15.5
8,12.6
9,13.760851984421823
10,1.2
11,290.0
12,0.0
13,0.0
14,12.564416911604267
15,-28.327824491869773
16,20.36465812132981
17,25.819348745474553
18,-0.20670896009049677
19,0.08632920100018132
20,-0.011488829248013931
21,0.0
22,0.01777949342549581
23,0.017779495488570777
24,0.0
25,0.0
26,0.0
27,105.03510042699467
28,0.0
29,0.0
30,0.0
31,0.0
32,0.0
33,16.282793512684737
34,0.0
35,0.0
36,0.0
2,1, 7, 1, 0, 2, 0.00,15.00,Saturday
7,15.4
8,12.549999999999999
9,13.692276921440287
10,1.15
11,290.0
12,0.0
13,0.0
14,16.37569581875607
15,-27.583868453319255
16,20.21057282811806
17,25.598462805118164
18,-0.20780650083799196
19,0.0793164634933403
20,-0.01055556283475163
21,0.0
22,0.01700517970361198
23,0.017005179748364543
24,0.0
25,0.0
26,0.0
27,99.37722618037279
28,0.0
29,0.0
30,0.0
31,0.0
32,0.0
33,15.559713499921354
34,0.0
35,0.0
36,0.0
2,1, 7, 1, 0, 2,15.00,30.00,Saturday
7,15.3
8,12.5
9,13.623522390841163
10,1.1
11,290.0
12,0.0
13,0.0
14,20.105101419663747
15,-26.651968061529587
16,20.124054753637637
17,25.362938466489698
18,-0.21289434432707335
19,0.07259814594413955
20,-0.009661478304112446
21,0.0
22,0.016214331209625222
23,0.016214331592770245
24,0.0
25,0.0
26,0.0
27,95.05334380883473
28,0.0
29,0.0
30,0.0
31,0.0
32,0.0
33,14.836813669752372
34,0.0
35,0.0
36,0.0
2,1, 7, 1, 0, 2,30.00,45.00,Saturday
7,15.2
8,12.450000000000001
9,13.554584812043055
10,1.05
11,290.0
12,0.0
13,0.0
14,23.73925634632866
15,-25.540433924215943
16,20.016814054511173
17,25.128606753723094
18,-0.21681969332231604
19,0.0661745993748258
20,-0.008806622370702889
21,0.0
22,0.015415858296523515
23,0.015415859527611516
24,0.0
25,0.0
26,0.0
27,90.26742450283129
28,0.0
29,0.0
30,0.0
31,0.0
32,0.0
33,14.105884710336154
34,0.0
35,0.0
36,0.0
2,1, 7, 1, 0, 2,45.00,60.00,Saturday
7,15.1
8,12.4
9,13.485456733279337
10,1.0
11,290.0
12,0.0
13,0.0
14,27.267863049020345
15,-24.25856942518454
16,19.92810329377982
17,24.8993463711658
18,-0.21950012559073853
19,0.06004617537531749
20,-0.007991041824676132
21,0.0
22,0.01460741233802717
23,0.01460741444534363
24,0.0
25,0.0
26,0.0
27,85.76314174790994
28,0.0
29,0.0
30,0.0
31,0.0
32,0.0
33,13.36673320388998
34,0.0
35,0.0
36,0.0
2,1, 7, 1, 0, 3, 0.00,15.00,Saturday
7,15.0
8,12.375
9,13.441996803530513
10,0.925
11,310.0
12,0.0
13,0.0
14,30.68369298196307
15,-22.816348511955272
16,20.61662349467674
17,24.741166700063523
18,-0.23732894499757265
19,0.03522991047971232
20,0.02355897051936122
21,0.003090302663274781
22,0.0059708568286882015
23,0.005962146353751273
24,0.003081592519616369
25,0.0
26,0.0
27,61.8861853883308
28,0.0
29,0.0
30,0.0
31,0.0
32,0.0
33,8.311859561957291
34,0.0
35,0.0
36,0.0
2,1, 7, 1, 0, 3,15.00,30.00,Saturday
7,14.899999999999999
8,12.350000000000001
9,13.398114757371479
10,0.85
11,330.0
12,0.0
13,0.0
14,33.98241537206135
15,-21.224115748023042
16,20.348310895777487
17,24.51794836195091
18,-0.2636961305389515
19,0.010041960050699949
20,0.03961770321207746
21,0.008536589044293323
22,0.0015964845608064692
23,0.0016173838688614292
24,0.00855748894139142
25,0.0
26,0.0
27,67.32078887561885
28,0.0
29,0.0
30,0.0
31,0.0
32,0.0
33,9.311337709759474
34,0.0
35,0.0
36,0.0
2,1, 7, 1, 0, 3,30.00,45.00,Saturday
7,14.799999999999999
8,12.325000000000001
9,13.353822411582643
10,0.7749999999999999
11,350.0
12,0.0
13,0.0
14,37.16231276177653
15,-19.49232316710142
16,19.66135765516177
17,24.342555009613648
18,-0.24544083857571536
19,-0.017960469613431344
20,0.03926083127102982
21,0.01313665877367754
22,0.0
23,0.0
24,0.013136633104539488
25,0.0
26,0.0
27,77.71903406797463
28,0.0
29,0.0
30,0.0
31,0.0
32,0.0
33,12.030993415452432
34,0.0
35,0.0
36,0.0
2,1, 7, 1, 0, 3,45.00,60.00,Saturday
7,14.7
8,12.3
9,13.309121274226916
10,0.7
11,10.0
12,0.0
13,0.0
14,40.22393066855575
15,-17.631311939180154
16,19.378304306769756
17,24.097461890561505
18,-0.23955725772560538
19,-0.02994203082117996
20,0.03204106608180226
21,0.013866984044711447
22,0.0
23,0.0
24,0.01386698087094787
25,0.0
26,0.0
27,78.99910718089922
28,0.0
29,0.0
30,0.0
31,0.0
32,0.0
33,12.683007550726776
34,0.0
35,0.0
36,0.0
2,1, 7, 1, 0, 4, 0.00,15.00,Saturday
7,14.624999999999998
8,12.250000000000002
9,13.23725447019623
10,0.6499999999999999
11,10.0
12,0.0
13,0.0
14,43.16970270614778
15,-15.651141198553292
16,19.382364660884978
17,23.821776294636
18,-0.23757860705312808
19,-0.025825914503193683
20,0.027636396414182654
21,0.012712264003460115
22,0.0
23,0.0
24,0.012712257454230916
25,0.0
26,0.0
27,73.66302490941464
28,0.0
29,0.0
30,0.0
31,0.0
32,0.0
33,11.630033462179146
34,0.0
35,0.0
36,0.0
2,1, 7, 1, 0, 4,15.00,30.00,Saturday
7,14.55
8,12.2
9,13.165396076027074
10,0.6
11,10.0
12,0.0
13,0.0
14,46.0035833106129
15,-13.561462117227094
16,19.42242752912498
17,23.586324886621167
18,-0.24208222216881609
19,-0.022012796364629616
20,0.02355596609918121
21,0.011335560188325428
22,0.00007832827341203731
23,0.00009333564841103544
24,0.011350570627615733
25,0.0
26,0.0
27,67.84516183777993
28,0.0
29,0.0
30,0.0
31,0.0
32,0.0
33,10.460089204874656
34,0.0
35,0.0
36,0.0
2,1, 7, 1, 0, 4,30.00,45.00,Saturday
7,14.475000000000001
8,12.149999999999999
9,13.093537156350267
10,0.55
11,10.0
12,0.0
13,0.0
14,48.730710289967654
15,-11.371432542783248
16,19.408587835849
17,23.390784163769823
18,-0.24800768248119726
19,-0.018502981370400514
20,0.0198001014807584
21,0.01001554286678789
22,0.0004944683602934567
23,0.0005145187452134265
24,0.010035593960559721
25,0.0
26,0.0
27,63.309901081483034
28,0.0
29,0.0
30,0.0
31,0.0
32,0.0
33,9.639504152223171
34,0.0
35,0.0
36,0.0
2,1, 7, 1, 0, 4,45.00,60.00,Saturday
7,14.4
8,12.1
9,13.02167523092577
10,0.5
11,10.0
12,0.0
13,0.0
14,51.357110444011354
15,-9.089666089235312
16,19.359571509008077
17,23.207583315369966
18,-0.25126098227880206
19,-0.015296774232836112
20,0.016369128632584752
21,0.008901382608684187
22,0.0009998486445709364
23,0.0010191958877552969
24,0.008920730315418443
25,0.0
26,0.0
27,59.97465761376859
28,0.0
29,0.0
30,0.0
31,0.0
32,0.0
33,9.082411213340777
34,0.0
35,0.0
36,0.0
2,1, 7, 1, 0, 5, 0.00,15.00,Saturday
7,14.3
8,12.075
9,12.976093271850473
10,0.425
11,10.0
12,0.0
13,0.0
14,53.88945433841395
15,-6.7242091687277785
16,19.31092931117524
17,23.02470413421104
18,-0.2532597226482457
19,-0.011055871115534879
20,0.011830924198841028
21,0.007523016967868826
22,0.0017830097270903065
23,0.0017985498738174953
24,0.007538557458287075
25,0.0
26,0.0
27,56.956625064224816
28,0.0
29,0.0
30,0.0
31,0.0
32,0.0
33,8.5355847795496
34,0.0
35,0.0
36,0.0
2,1, 7, 1, 0, 5,15.00,30.00,Saturday
7,14.2
8,12.05
9,12.930109074898892
10,0.35
11,10.0
12,0.0
13,0.0
14,56.33486119493952
15,-4.2825397514018295
16,19.226838222065116
17,22.842865753829194
18,-0.2557936410725124
19,-0.007500785457175197
20,0.00802661529320077
21,0.00644225080103638
22,0.002548411786711867
23,0.002559523363604715
24,0.00645336268014571
25,0.0
26,0.0
27,55.19637105466654
28,0.0
29,0.0
30,0.0
31,0.0
32,0.0
33,8.243253075645827
34,0.0
35,0.0
36,0.0
2,1, 7, 1, 0, 5,30.00,45.00,Saturday
7,14.1
8,12.025
9,12.883727940306015
10,0.275
11,10.0
12,0.0
13,0.0
14,58.70075161730454
15,-1.7715823507148025
16,19.112981442564852
17,22.666002984235735
18,-0.2568799674771357
19,-0.004632248789164608
20,0.004956984729839466
21,0.005616060562511073
22,0.0032107013430705527
23,0.0032177284526900113
24,0.0056230879550656305
25,0.0
26,0.0
27,54.03573861796824
28,0.0
29,0.0
30,0.0
31,0.0
32,0.0
33,8.089083645022791
34,0.0
35,0.0
36,0.0
2,1, 7, 1, 0, 5,45.00,60.00,Saturday
7,14.0
8,12.0
9,12.836940910203902
10,0.2
11,10.0
12,16.5
13,181.5
14,60.99474416458865
15,0.802265369589559
16,19.00332768015975
17,22.497812785346188
18,-0.2565128792204289
19,-0.002450995970558465
20,0.0026228188838595293
21,0.005007972000982758
22,0.0037330673522788455
23,0.0037368151222126876
24,0.005011720042449057
25,0.0
26,0.0
27,53.406811376809316
28,0.0
29,0.0
30,0.0
31,0.0
32,0.0
33,8.007367318547729
34,0.0
35,0.0
36,0.0
2,1, 7, 1, 0, 6, 0.00,15.00,Saturday
7,14.15
8,12.1
9,12.956746495525758
10,0.15000000000000002
11,10.0
12,24.75
13,272.25
14,63.22459122547986
15,3.4330980332371763
16,18.999040773505104
17,22.338864988680648
18,-0.24189995172431342
19,-0.0013778294462981479
20,0.0014744198415247043
21,0.004606654275062007
22,0.0038679749470710567
23,0.003870027024292141
24,0.004608706571150699
25,0.0
26,0.0
27,50.14754760992633
28,0.0
29,0.0
30,0.0
31,0.0
32,0.0
33,7.7577569634694585
34,0.0
35,0.0
36,0.0
2,1, 7, 1, 0, 6,15.00,30.00,Saturday
7,14.3
8,12.2
9,13.076297411430398
10,0.1
11,10.0
12,33.0
13,363.0
14,65.39814989300928
15,6.115462813854696
16,18.997203968567348
17,22.187645009995947
18,-0.23337875416163856
19,-0.0006119884458457048
20,0.0006548908573285928
21,0.004327189903185161
22,0.003992946411961518
23,0.003993843240195844
24,0.004328086923696635
25,0.0
26,0.0
27,47.6611340531541
28,0.0
29,0.0
30,0.0
31,0.0
32,0.0
33,7.611291255015186
34,0.0
35,0.0
36,0.0
2,1, 7, 1, 0, 6,30.00,45.00,Saturday
7,14.45
8,12.3
9,13.195590692992605
10,0.05
11,10.0
12,43.5
13,418.0
14,67.52338432575586
15,8.844316509901184
16,18.97966362799417
17,22.043240761251
18,-0.22560141283184773
19,-0.00015290210069041508
20,0.00016362104299226375
21,0.004133614459658976
22,0.00404863498086082
23,0.004048855458417757
24,0.004133835107806201
25,0.0
26,0.0
27,45.172893231751665
28,0.0
29,0.0
30,0.0
31,0.0
32,0.0
33,7.480188405578341
34,0.0
35,0.0
36,0.0
2,1, 7, 1, 0, 6,45.00,60.00,Saturday
7,14.6
8,12.4
9,13.314626352431446
10,0.0
11,10.0
12,54.0
13,473.0
14,69.60839723048406
15,11.614980733351857
16,18.967633205267628
17,21.907253101801302
18,-0.21716453316790632
19,0.0
20,0.0
21,0.004015693683863905
22,0.004015693758480987
23,0.004015693683863905
24,0.004015693758480987
25,0.0
26,0.0
27,42.731117378107925
28,0.0
29,0.0
30,0.0
31,0.0
32,0.0
33,7.337942892524515
34,0.0
35,0.0
36,0.0
2,1, 7, 1, 0, 7, 0.00,15.00,Saturday
7,15.25
8,12.8
9,13.784282059478448
10,0.125
11,10.0
12,64.5
13,528.0
14,71.66148951861048
15,14.423095922788672
16,19.17601194526696
17,21.782933663727185
18,-0.17973208979337388
19,-0.0009525451053593411
20,0.0010193216635501808
21,0.003961277824910715
22,0.0033668307253319875
23,0.0033680614528993394
24,0.003962508629531684
25,0.0
26,0.0
27,34.975785182468
28,0.0
29,0.0
30,0.0
31,0.0
32,0.0
33,6.686306256377359
34,0.0
35,0.0
36,0.0
2,1, 7, 1, 0, 7,15.00,30.00,Saturday
7,15.899999999999999
8,13.2
9,14.246904556081581
10,0.25
11,10.0
12,75.0
13,583.0
14,73.69124885546096
15,17.264574374217602
16,19.38584812258854
17,21.675460317696952
18,-0.1552683531418624
19,-0.0038002237838216197
20,0.004066632023400832
21,0.004761640035756542
22,0.002212907623728664
23,0.002217385768105946
24,0.004766118229896464
25,0.0
26,0.0
27,29.505303086257584
28,0.0
29,0.0
30,0.0
31,0.0
32,0.0
33,6.3569889812978575
34,0.0
35,0.0
36,0.0
2,1, 7, 1, 0, 7,30.00,45.00,Saturday
7,16.549999999999997
8,13.6
9,14.70236737395719
10,0.375
11,10.0
12,82.25
13,617.5
14,75.70666978720917
15,20.135552007239788
16,19.486082087969827
17,21.58796406505612
18,-0.13244371113683834
19,-0.008528197421423942
20,0.009126052229737563
21,0.006724900332504786
22,0.0006319115246723768
23,0.0006396071150892118
24,0.006732595970574424
25,0.0
26,0.0
27,26.167168225771565
28,0.0
29,0.0
30,0.0
31,0.0
32,0.0
33,6.695341386203137
34,0.0
35,0.0
36,0.0
2,1, 7, 1, 0, 7,45.00,60.00,Saturday
7,17.2
8,14.0
9,15.15054910423831
10,0.5
11,10.0
12,89.5
13,652.0
14,77.71731051703462
15,23.032338110765867
16,19.41167111098823
17,21.520279600891776
18,-0.10479210131954021
19,-0.015121762959391511
20,0.016181848490800503
21,0.010014195496428678
22,0.0
23,0.0
24,0.01001419547965877
25,0.0
26,0.0
27,26.744324197480644
28,0.0
29,0.0
30,0.0
31,0.0
32,0.0
33,9.08153219464166
34,0.0
35,0.0
36,0.0
2,1, 7, 1, 0, 8, 0.00,15.00,Saturday
7,17.45
8,14.05
9,15.301384248743707
10,0.975
11,10.0
12,96.75
13,686.5
14,79.73349441361124
15,25.95136179231785
16,18.92863562332856
17,21.488798356629033
18,-0.0823948732182369
19,-0.05744497209813307
20,0.06147205438588998
21,0.019945505085040935
22,0.0
23,0.0
24,0.019945505009179243
25,0.0
26,0.0
27,35.58159108904675
28,0.0
29,0.0
30,0.0
31,0.0
32,0.0
33,18.05309271998038
34,0.0
35,0.0
36,0.0
2,1, 7, 1, 0, 8,15.00,30.00,Saturday
7,17.7
8,14.1
9,15.450715704941567
10,1.45
11,10.0
12,104.0
13,721.0
14,81.76656828419087
15,28.88911322456372
16,18.7444735349131
17,21.443729969556603
18,-0.05032503082075656
19,-0.12692875709505694
20,0.13582688221959008
21,0.029701679422208548
22,0.0
23,0.0
24,0.029701645490416446
25,0.0
26,0.0
27,37.397211638497964
28,0.0
29,0.0
30,0.0
31,0.0
32,0.0
33,26.827334971573364
34,0.0
35,0.0
36,0.0
2,1, 7, 1, 0, 8,30.00,45.00,Saturday
7,17.95
8,14.149999999999999
9,15.598530123440932
10,1.9249999999999998
11,10.0
12,108.25
13,743.0
14,83.82923479712734
15,31.84207695476928
16,18.731084686365545
17,21.399944770714164
18,-0.02935084381443566
19,-0.2234948934722163
20,0.23916262371967048
21,0.03944605092956215
22,0.0
23,0.0
24,0.0394460509210311
25,0.0
26,0.0
27,37.110466218488575
28,0.0
29,0.0
30,0.0
31,0.0
32,0.0
33,35.596451807636996
34,0.0
35,0.0
36,0.0
2,1, 7, 1, 0, 8,45.00,60.00,Saturday
7,18.2
8,14.2
9,15.744820187257806
10,2.4
11,10.0
12,112.5
13,765.0
14,85.93598388560372
15,34.80665339089467
16,18.789220141673724
17,21.380689130600324
18,-0.012161751897163866
19,-0.3470656578911121
20,0.3713961068848791
21,0.04919117707790753
22,0.0
23,0.0
24,0.04919067491341195
25,0.0
26,0.0
27,34.88099288485539
28,0.0
29,0.0
30,0.0
31,0.0
32,0.0
33,44.360815967353936
34,0.0
35,0.0
36,0.0
2,1, 7, 1, 0, 9, 0.00,15.00,Saturday
7,18.45
8,14.45
9,15.977886325256303
10,2.65
11,10.0
12,116.75
13,787.0
14,88.10365853180583
15,37.77906291129234
16,18.92642596861171
17,21.386956069785505
18,0.0021553129293043183
19,-0.4226632292325591
20,0.45229331768000214
21,0.0543261898548852
22,0.0
23,0.0
24,0.054326191183138924
25,0.0
26,0.0
27,31.122717213780078
28,0.0
29,0.0
30,0.0
31,0.0
32,0.0
33,48.97321074971631
34,0.0
35,0.0
36,0.0
2,1, 7, 1, 0, 9,15.00,30.00,Saturday
7,18.7
8,14.7
9,16.210966273939405
10,2.9
11,10.0
12,121.0
13,809.0
14,90.35220554267657
15,40.755224566518166
16,19.08908008870395
17,21.410292173264327
18,0.01085052383387605
19,-0.5056045664115341
20,0.5410491165546975
21,0.05945731360321756
22,0.0
23,0.0
24,0.059457443021443894
25,0.0
26,0.0
27,27.794762006810128
28,0.0
29,0.0
30,0.0
31,0.0
32,0.0
33,53.58270138949272
34,0.0
35,0.0
36,0.0
2,1, 7, 1, 0, 9,30.00,45.00,Saturday
7,18.95
8,14.95
9,16.44406020289414
10,3.15
11,10.0
12,122.75
13,824.0
14,92.70568402983633
15,43.730597579592015
16,19.26678219820307
17,21.44509551463391
18,0.018182556420987817
19,-0.5958638866996753
20,0.6376359133261839
21,0.06458758699530037
22,0.0
23,0.0
24,0.06458799841310624
25,0.0
26,0.0
27,24.562681371156383
28,0.0
29,0.0
30,0.0
31,0.0
32,0.0
33,58.19186828623055
34,0.0
35,0.0
36,0.0
2,1, 7, 1, 0, 9,45.00,60.00,Saturday
7,19.2
8,15.2
9,16.67716745923943
10,3.4
11,10.0
12,124.5
13,839.0
14,95.19363652948925
15,46.699968042839956
16,19.235545654555136
17,21.487790101435188
18,0.025099867307762935
19,-0.6934153152418823
20,0.7420260192265521
21,0.6296027046470796
22,0.0
23,0.0
24,0.6296082449821486
25,0.0
26,0.0
27,26.845167262725116
28,0.0
29,0.0
30,0.0
31,0.0
32,0.0
33,566.7117243307507
34,0.0
35,0.0
36,0.0
2,1, 7, 1, 0,10, 0.00,15.00,Saturday
7,19.549999999999997
8,15.399999999999999
9,16.91238235562167
10,3.275
11,12.5
12,126.25
13,854.0
14,97.8529744453247
15,49.65715411269911
16,19.756647953049352
17,21.540248787794717
18,0.009046100258074024
19,-0.6668538025207347
20,0.6736754286284485
21,0.0674270934262002
22,0.0
23,0.0
24,0.06742738210516072
25,0.0
26,0.0
27,16.693480949760996
28,0.0
29,0.0
30,0.0
31,0.0
32,0.0
33,60.76695833009188
34,0.0
35,0.0
36,0.0
2,1, 7, 1, 0,10,15.00,30.00,Saturday
7,19.9
8,15.6
9,17.145530716887606
10,3.15
11,15.0
12,128.0
13,869.0
14,100.7305959826039
15,52.59458859093152
16,20.06297105604832
17,21.63741670847513
18,-0.02168931622522697
19,-0.6385877858670537
20,0.6095843769467911
21,0.0650943974505892
22,0.0
23,0.0
24,0.06509369744238554
25,0.0
26,0.0
27,12.695478226570833
28,0.0
29,0.0
30,0.0
31,0.0
32,0.0
33,58.65543366895969
34,0.0
35,0.0
36,0.0
2,1, 7, 1, 0,10,30.00,45.00,Saturday
7,20.25
8,15.8
9,17.376572301686394
10,3.025
11,17.5
12,128.0
13,878.75
14,103.88704464876542
15,55.50271478458659
16,20.37672891819569
17,21.741529663137015
18,-0.03451696488434748
19,-0.6088371981617134
20,0.5496145523783701
21,0.06275929820549297
22,0.0
23,0.0
24,0.06275593745228569
25,0.0
26,0.0
27,9.506613676647898
28,0.0
29,0.0
30,0.0
31,0.0
32,0.0
33,56.54231654729088
34,0.0
35,0.0
36,0.0
2,1, 7, 1, 0,10,45.00,60.00,Saturday
7,20.6
8,16.0
9,17.605496263981625
10,2.9
11,20.0
12,128.0
13,888.5
14,107.40162330326338
15,58.36909490618041
16,20.69252985274185
17,21.865779180280235
18,-0.04536880851621075
19,-0.577820729506508
20,0.493628389094938
21,0.060403829336288274
22,0.0
23,0.0
24,0.06039453661638874
25,0.0
26,0.0
27,6.672247491152167
28,0.0
29,0.0
30,0.0
31,0.0
32,0.0
33,54.408790709937065
34,0.0
35,0.0
36,0.0
2,1, 7, 1, 0,11, 0.00,15.00,Saturday
7,21.3
8,16.0
9,17.861094150259284
10,3.15
11,15.0
12,128.0
13,898.25
14,111.37945931836092
15,61.17707302676933
16,21.300958418564374
17,22.00992417703825
18,-0.013999644735319259
19,-0.6352518431413414
20,0.6063999462185672
21,0.5773502525111317
22,0.0
23,0.0
24,0.5773488947578649
25,2.920781029671495
26,0.0
27,3.5798807210726493
28,0.0
29,0.0
30,0.0
31,0.0
32,0.0
33,519.9650393530555
34,0.0
35,0.0
36,0.0
2,1, 7, 1, 0,11,15.00,30.00,Saturday
7,22.0
8,16.0
9,18.09590584899636
10,3.4
11,10.0
12,128.0
13,908.0
14,115.96091316773986
15,63.90375015929878
16,21.960124120395275
17,22.150756359418722
18,0.036902331013000604
19,-0.6862140437879205
20,0.7343199148574999
21,0.06973145639021704
22,0.0
23,0.0
24,0.06973526282807922
25,4.58873234461252
26,0.0
27,1.2823682386342037
28,0.0
29,0.0
30,0.0
31,0.0
32,0.0
33,62.80976876633669
34,0.0
35,0.0
36,0.0
2,1, 7, 1, 0,11,30.00,45.00,Saturday
7,22.699999999999996
8,16.0
9,18.309000316758983
10,3.65
11,5.0
12,127.75
13,913.0
14,121.3329572563638
15,66.51692354051191
16,22.587481015892784
17,22.35798283370927
18,0.08029435895588176
19,-0.7290745644620734
20,0.8782527769414613
21,0.07425371084659933
22,0.0
23,0.0
24,0.07425371084746832
25,9.904586567407826
26,0.0
27,0.0
28,0.0
29,0.0
30,0.0
31,0.0
32,0.0
33,66.86294235549113
34,0.0
35,0.0
36,0.0
2,1, 7, 1, 0,11,45.00,60.00,Saturday
7,23.4
8,16.0
9,18.499386886766896
10,3.9
11,0.0
12,127.5
13,918.0
14,127.7394362591774
15,68.97057967005684
16,23.218275501022724
17,22.552382468428053
18,0.14722054659984352
19,-0.7622147383424878
20,1.0390605440505591
21,0.07870048384119238
22,0.0
23,0.0
24,0.07870048388454563
25,16.91430032556503
26,0.0
27,0.0
28,0.0
29,0.0
30,0.0
31,0.0
32,0.0
33,70.85034408353931
34,0.0
35,0.0
36,0.0
2,1, 7, 1, 0,12, 0.00,15.00,Saturday
7,23.9
8,16.05
9,18.71658882599655
10,3.775
11,0.0
12,127.25
13,923.0
14,135.47953017842585
15,71.19877019842711
16,23.66498919829646
17,22.718593635921906
18,0.1527885275784434
19,-0.7128562363615453
20,0.9717744246121364
21,0.07619816978153307
22,0.0
23,0.0
24,0.0761981699535494
25,21.144237868513297
26,0.0
27,0.0
28,0.0
29,0.0
30,0.0
31,0.0
32,0.0
33,68.57023211149328
34,0.0
35,0.0
36,0.0
2,1, 7, 1, 0,12,15.00,30.00,Saturday
7,24.4
8,16.1
9,18.925892259936436
10,3.65
11,0.0
12,127.0
13,928.0
14,144.86698775303972
15,73.10900399563455
16,24.11411532446109
17,22.994983978307175
18,0.134956854427922
19,-0.6652431095548237
20,0.9068676221651983
21,0.07366273142281834
22,0.0
23,0.0
24,0.0736627314941994
25,24.823019552304252
26,0.0
27,0.0
28,0.0
29,0.0
30,0.0
31,0.0
32,0.0
33,66.27759015468116
34,0.0
35,0.0
36,0.0
2,1, 7, 1, 0,12,30.00,45.00,Saturday
7,24.9
8,16.15
9,19.127090485026304
10,3.525
11,0.0
12,127.0
13,929.0
14,156.10072541218554
15,74.5801353691899
16,24.565041428796583
17,23.223646552142977
18,0.12889485032174852
19,-0.6193648337273829
20,0.8443257899972374
21,0.07114296061294949
22,0.0
23,0.0
24,0.07114296070297484
25,28.042413859095966
26,0.0
27,0.0
28,0.0
29,0.0
30,0.0
31,0.0
32,0.0
33,64.00019121800922
34,0.0
35,0.0
36,0.0
2,1, 7, 1, 0,12,45.00,60.00,Saturday
7,25.4
8,16.2
9,19.319974482703287
10,3.4
11,0.0
12,127.0
13,930.0
14,169.01815504530234
15,75.47626002331425
16,25.00996679919804
17,23.467250378513008
18,0.12336179873969044
19,-0.5752109566909024
20,0.7841346795560584
21,0.0686232493534861
22,0.0
23,0.0
24,0.06862324947065732
25,31.444302848492807
26,0.0
27,0.0
28,0.0
29,0.0
30,0.0
31,0.0
32,0.0
33,61.722328565852294
34,0.0
35,0.0
36,0.0
2,1, 7, 1, 0,13, 0.00,15.00,Saturday
7,25.9
8,16.25
9,19.504314349348224
10,3.675
11,357.5
12,127.0
13,931.0
14,182.8701566021299
15,75.68790437180485
16,25.48336534536577
17,23.722645194867177
18,0.16881821333818767
19,-0.5999523190071823
20,0.897509402637736
21,0.07208911028156076
22,0.0
23,0.0
24,0.07208911098083348
25,35.22663128846655
26,0.0
27,0.0
28,0.0
29,0.0
30,0.0
31,0.0
32,0.0
33,64.83414377052028
34,0.0
35,0.0
36,0.0
2,1, 7, 1, 0,13,15.00,30.00,Saturday
7,26.4
8,16.299999999999997
9,19.679874919772995
10,3.95
11,355.0
12,127.0
13,932.0
14,196.46645903689154
15,75.18547357281395
16,25.957424378145202
17,23.984573614355703
18,0.22368612286895584
19,-0.6101373019595316
20,1.0154579348463937
21,0.07517583429377403
22,0.0
23,0.0
24,0.07517583819713108
25,38.95731182524862
26,0.0
27,0.0
28,0.0
29,0.0
30,0.0
31,0.0
32,0.0
33,67.60461103133571
34,0.0
35,0.0
36,0.0
2,1, 7, 1, 0,13,30.00,45.00,Saturday
7,26.9
8,16.349999999999998
9,19.846409820119707
10,4.225
11,352.5
12,127.25
13,928.75
14,208.74593073746095
15,74.03675911335519
16,26.432855810895795
17,24.254547564140967
18,0.2889540280555297
19,-0.6034672556157498
20,1.1373936860048117
21,0.07786278314578557
22,0.0
23,0.0
24,0.07786280410899937
25,42.51885003398389
26,0.0
27,0.0
28,0.0
29,0.0
30,0.0
31,0.0
32,0.0
33,70.01544541092593
34,0.0
35,0.0
36,0.0
2,1, 7, 1, 0,13,45.00,60.00,Saturday
7,27.4
8,16.4
9,20.003649808727836
10,4.5
11,350.0
12,127.5
13,925.5
14,219.21248890897135
15,72.36874502811466
16,26.90873208073255
17,24.530593089678987
18,0.3654619719065312
19,-0.5776574713728673
20,1.2627349397957643
21,0.08012611169836258
22,0.0
23,0.0
24,0.08012622203981504
25,45.9378809726706
26,0.0
27,0.0
28,0.0
29,0.0
30,0.0
31,0.0
32,0.0
33,72.0451481624548
34,0.0
35,0.0
36,0.0
2,1, 7, 1, 0,14, 0.00,15.00,Saturday
7,27.749999999999996
8,15.849999999999998
9,19.849797462018838
10,4.425
11,347.5
12,127.75
13,922.25
14,227.887183827748
15,70.31458966889649
16,27.231322812794822
17,24.811135497479647
18,0.39285972651883844
19,-0.45600178551715104
20,1.195722885647084
21,0.07593080482988382
22,0.0
23,0.0
24,0.07593137881406303
25,45.90452540043394
26,0.0
27,0.0
28,0.0
29,0.0
30,0.0
31,0.0
32,0.0
33,68.26558244199101
34,0.0
35,0.0
36,0.0
2,1, 7, 1, 0,14,15.00,30.00,Saturday
7,28.1
8,15.299999999999999
9,19.679827433698236
10,4.35
11,345.0
12,128.0
13,919.0
14,235.0397458569068
15,67.98408396161791
16,27.554410283315526
17,25.092959383957755
18,0.419248535240622
19,-0.34169263018318585
20,1.1311778263421701
21,0.07172315700863037
22,0.0
23,0.0
24,0.07172637874524926
25,45.555374430147566
26,0.0
27,0.0
28,0.0
29,0.0
30,0.0
31,0.0
32,0.0
33,64.47805119837143
34,0.0
35,0.0
36,0.0
2,1, 7, 1, 0,14,30.00,45.00,Saturday
7,28.450000000000003
8,14.749999999999998
9,19.49298504225132
10,4.275
11,342.5
12,128.0
13,911.0
14,240.98724739470492
15,65.45810377277185
16,27.871747938913664
17,25.374124412983782
18,0.44313622262219243
19,-0.23453037281067665
20,1.0690479514897535
21,0.06749669556614882
22,0.0
23,0.0
24,0.06749669556939356
25,45.378490432078266
26,0.0
27,0.0
28,0.0
29,0.0
30,0.0
31,0.0
32,0.0
33,60.667940090096636
34,0.0
35,0.0
36,0.0
2,1, 7, 1, 0,14,45.00,60.00,Saturday
7,28.8
8,14.2
9,19.288455753845472
10,4.2
11,340.0
12,128.0
13,903.0
14,246.00790824359805
15,62.79356868216842
16,28.18491790844665
17,25.6542769937526
18,0.464980395708971
19,-0.13431685280773
20,1.0092818278898874
21,0.06323716768414238
22,0.0
23,0.0
24,0.06323716817561131
25,45.16583818868976
26,0.0
27,0.0
28,0.0
29,0.0
30,0.0
31,0.0
32,0.0
33,56.83114675793959
34,0.0
35,0.0
36,0.0
2,1, 7, 1, 0,15, 0.00,15.00,Saturday
7,28.6
8,14.349999999999998
9,19.325484022001227
10,4.3500000000000005
11,337.5
12,128.0
13,895.0
14,250.32130317365667
15,60.030157187298975
16,28.11236306564424
17,25.932713373604933
18,0.5277848592512455
19,-0.04547581736372166
20,1.0594733087318802
21,0.06213705973911648
22,0.0
23,0.0
24,0.06213823213802542
25,35.2096118877173
26,0.0
27,0.0
28,0.0
29,0.0
30,0.0
31,0.0
32,0.0
33,55.833934284390914
34,0.0
35,0.0
36,0.0
2,1, 7, 1, 0,15,15.00,30.00,Saturday
7,28.4
8,14.5
9,19.358960167251684
10,4.5
11,335.0
12,128.0
13,887.0
14,254.09379532609643
15,57.19578990257896
16,28.00425559809172
17,26.21133935916974
18,0.5993154499849868
19,0.05695438030065304
20,1.1089717999166984
21,0.06061142486974698
22,0.0
23,0.0
24,0.06061282143249087
25,27.89239858084148
26,0.0
27,0.0
28,0.0
29,0.0
30,0.0
31,0.0
32,0.0
33,54.479538172343865
34,0.0
35,0.0
36,0.0
2,1, 7, 1, 0,15,30.00,45.00,Saturday
7,28.2
8,14.650000000000002
9,19.388952873934493
10,4.6499999999999995
11,332.5
12,127.25
13,874.25
14,257.449957576404
15,54.31049477390323
16,27.904638745361627
17,26.47078836128637
18,0.6772526685539441
19,0.17369949271254065
20,1.1576082053766472
21,0.05859882693917075
22,0.0
23,0.0
24,0.05859790812725644
25,20.139226181739158
26,0.0
27,0.0
28,0.0
29,0.0
30,0.0
31,0.0
32,0.0
33,52.68605171563346
34,0.0
35,0.0
36,0.0
2,1, 7, 1, 0,15,45.00,60.00,Saturday
7,28.0
8,14.8
9,19.415533805388193
10,4.8
11,330.0
12,126.5
13,861.5
14,260.48329159142776
15,51.38899295120227
16,27.79587951977633
17,26.711407807210566
18,0.7623361536341355
19,0.3054872023827002
20,1.2052130518326518
21,0.05601754514767144
22,0.0
23,0.0
24,0.05601728452858885
25,13.314230637549077
26,0.0