Program Version,EnergyPlus, Version 22.2.0-c249759bad, YMD=2025.09.23 19:19
1,5,Environment Title[],Latitude[deg],Longitude[deg],Time Zone[],Elevation[m]
2,8,Day of Simulation[],Month[],Day of Month[],DST Indicator[1=yes 0=no],Hour[],StartMinute[],EndMinute[],DayType
3,5,Cumulative Day of Simulation[],Month[],Day of Month[],DST Indicator[1=yes 0=no],DayType  ! When Daily Report Variables Requested
4,2,Cumulative Days of Simulation[],Month[]  ! When Monthly Report Variables Requested
5,1,Cumulative Days of Simulation[] ! When Run Period Report Variables Requested
6,1,Calendar Year of Simulation[] ! When Annual Report Variables Requested
7,1,Environment,Site Outdoor Air Drybulb Temperature [C] !TimeStep
8,1,Environment,Site Outdoor Air Dewpoint Temperature [C] !TimeStep
9,1,Environment,Site Outdoor Air Wetbulb Temperature [C] !TimeStep
10,1,Environment,Site Wind Speed [m/s] !TimeStep
11,1,Environment,Site Wind Direction [deg] !TimeStep
12,1,Environment,Site Diffuse Solar Radiation Rate per Area [W/m2] !TimeStep
13,1,Environment,Site Direct Solar Radiation Rate per Area [W/m2] !TimeStep
14,1,Environment,Site Solar Azimuth Angle [deg] !TimeStep
15,1,Environment,Site Solar Altitude Angle [deg] !TimeStep
16,1,BLOCK `ROOM1` STOREY 0,Zone Mean Air Temperature [C] !TimeStep
17,1,BLOCK `ROOM2` STOREY 0,Zone Mean Air Temperature [C] !TimeStep
18,1,BLOCK `ROOM1` STOREY 0,AFN Node Total Pressure [Pa] !TimeStep
19,1,BLOCK `ROOM2` STOREY 0,AFN Node Total Pressure [Pa] !TimeStep
20,1,ExtNode   1,AFN Node Total Pressure [Pa] !TimeStep
21,1,ExtNode   2,AFN Node Total Pressure [Pa] !TimeStep
22,1,ExtNode   3,AFN Node Total Pressure [Pa] !TimeStep
23,1,DOOR__BLOCK `ROOM1` STOREY 0 WALL 0004_1,AFN Linkage Node 1 to Node 2 Volume Flow Rate [m3/s] !TimeStep
24,1,DOOR__BLOCK `ROOM1` STOREY 0 WALL 0004_1,AFN Linkage Node 2 to Node 1 Volume Flow Rate [m3/s] !TimeStep
25,1,WINDOW__BLOCK `ROOM1` STOREY 0 WALL 0002,AFN Linkage Node 1 to Node 2 Volume Flow Rate [m3/s] !TimeStep
26,1,WINDOW__BLOCK `ROOM1` STOREY 0 WALL 0002,AFN Linkage Node 2 to Node 1 Volume Flow Rate [m3/s] !TimeStep
27,1,WINDOW__BLOCK `ROOM1` STOREY 0 WALL 0001,AFN Linkage Node 1 to Node 2 Volume Flow Rate [m3/s] !TimeStep
28,1,WINDOW__BLOCK `ROOM1` STOREY 0 WALL 0001,AFN Linkage Node 2 to Node 1 Volume Flow Rate [m3/s] !TimeStep
29,1,WINDOW__BLOCK `ROOM2` STOREY 0 WALL 0003,AFN Linkage Node 1 to Node 2 Volume Flow Rate [m3/s] !TimeStep
30,1,WINDOW__BLOCK `ROOM2` STOREY 0 WALL 0003,AFN Linkage Node 2 to Node 1 Volume Flow Rate [m3/s] !TimeStep
31,1,BLOCK `ROOM1` STOREY 0,AFN Zone Ventilation Sensible Heat Gain Rate [W] !TimeStep
32,1,BLOCK `ROOM1` STOREY 0,AFN Zone Mixing Sensible Heat Gain Rate [W] !TimeStep
33,1,BLOCK `ROOM1` STOREY 0,AFN Zone Ventilation Sensible Heat Loss Rate [W] !TimeStep
34,1,BLOCK `ROOM1` STOREY 0,AFN Zone Mixing Sensible Heat Loss Rate [W] !TimeStep
35,1,BLOCK `ROOM2` STOREY 0,AFN Zone Ventilation Sensible Heat Gain Rate [W] !TimeStep
36,1,BLOCK `ROOM2` STOREY 0,AFN Zone Mixing Sensible Heat Gain Rate [W] !TimeStep
37,1,BLOCK `ROOM2` STOREY 0,AFN Zone Ventilation Sensible Heat Loss Rate [W] !TimeStep
38,1,BLOCK `ROOM2` STOREY 0,AFN Zone Mixing Sensible Heat Loss Rate [W] !TimeStep
39,1,BLOCK `ROOM1` STOREY 0,AFN Zone Ventilation Volume [m3] !TimeStep
40,1,BLOCK `ROOM1` STOREY 0,AFN Zone Mixing Volume [m3] !TimeStep
41,1,BLOCK `ROOM2` STOREY 0,AFN Zone Ventilation Volume [m3] !TimeStep
42,1,BLOCK `ROOM2` STOREY 0,AFN Zone Mixing Volume [m3] !TimeStep
End of Data Dictionary
1,SUMMER,  37.46,-122.11,  -8.00,   1.00
2,1, 7, 1, 0, 1, 0.00,15.00,Saturday
7,18.65
8,13.500000000000002
9,15.506138388388512
10,1.425
11,305.0
12,0.0
13,0.0
14,0.813845992880616
15,-29.37040777546127
16,21.884099090171294
17,23.91415736241622
18,-0.11948290404168065
19,-0.21645142958037972
20,0.0961248433086844
21,0.04148673878413782
22,-0.10361547766877567
23,0.008502248422180161
24,0.0
25,0.0
26,0.01653770994306839
27,0.008461542909067013
28,0.0004260920939883829
29,0.009393430644635084
30,0.0008910543639840608
31,0.0
32,0.0
33,65.92415778144775
34,0.0
35,0.0
36,0.0
37,5.633238271706315
38,20.734513635010472
39,15.445448221580111
40,0.0
41,0.8168258465985927
42,7.796036627289474
2,1, 7, 1, 0, 1,15.00,30.00,Saturday
7,17.6
8,13.2
9,14.95520882365769
10,1.35
11,300.0
12,0.0
13,0.0
14,4.763802213187274
15,-29.225541798861435
16,21.396803727110438
17,23.405684687033336
18,-0.13773603713097485
19,-0.2374429161199082
20,0.09891732140550405
21,0.025072725305628117
22,-0.10051710005106114
23,0.0045633388339975855
24,0.0011567320984867675
25,0.0
26,0.017114684836621562
27,0.01370800913038872
28,0.0
29,0.00644836295411668
30,0.0030416509967369355
31,0.0
32,2.7730387466141453
33,78.36004017049635
34,0.0
35,0.0
36,0.0
37,21.255224407464013
38,11.075835935067019
39,15.61314131889721
40,1.0554006357958012
41,2.7933810261811423
42,4.191946162799863
2,1, 7, 1, 0, 1,30.00,45.00,Saturday
7,16.55
8,12.899999999999999
9,14.372986587507057
10,1.275
11,295.0
12,0.0
13,0.0
14,8.687533996163891
15,-28.87684189434883
16,21.217469239143078
17,22.548905291997364
18,-0.18084036766768422
19,-0.2470360968535047
20,0.09282511463462728
21,0.004767296049141559
22,-0.08477026411803618
23,0.0007786688429284965
24,0.0043083410064151525
25,0.0
26,0.014953101145819516
27,0.018482798899289225
28,0.0
29,0.0031679463380840725
30,0.006697691672229931
31,0.0
32,6.761333317286634
33,84.20766399959882
34,0.0
35,0.0
36,0.0
37,48.71938765760446
38,1.3444155363739818
39,13.684578403644924
40,3.9464127205015673
41,6.158483207827279
42,0.7157723317655234
2,1, 7, 1, 0, 1,45.00,60.00,Saturday
7,15.5
8,12.6
9,13.760851984421823
10,1.2
11,290.0
12,0.0
13,0.0
14,12.564416911604267
15,-28.327824491869773
16,20.945600300217468
17,21.612628837562124
18,-0.22097643846912807
19,-0.2464906550944046
20,0.08632920100018134
21,-0.011488829248013931
22,-0.07072784132007195
23,0.0
24,0.008147046989848018
25,0.00009230197053309265
26,0.013040185494793787
27,0.02109508391612623
28,0.0
29,0.0013908905142552975
30,0.009538017372909699
31,0.0
32,6.354836726882882
33,85.98070980284342
34,0.0
35,0.0
36,0.0
37,70.9217765601925
38,0.0
39,11.966565101543381
40,7.481496763557562
41,8.77412349031718
42,0.0
2,1, 7, 1, 0, 2, 0.00,15.00,Saturday
7,15.4
8,12.549999999999999
9,13.692276921440287
10,1.15
11,290.0
12,0.0
13,0.0
14,16.37569581875607
15,-27.583868453319255
16,20.911072327687513
17,21.369275372343722
18,-0.2234316039210671
19,-0.23827226462520684
20,0.0793164634933403
21,-0.01055556283475163
22,-0.06498244138752621
23,0.0
24,0.0091241283692712
25,0.0002281272821155147
26,0.011632159707602726
27,0.02052816154025696
28,0.0
29,0.0009977794557460935
30,0.010122036096703273
31,0.0
32,5.087822914776412
33,77.86594833549225
34,0.0
35,0.0
36,0.0
37,73.41996964574543
38,0.0
39,10.674317832008867
40,8.375099363164853
41,9.303184407352717
42,0.0
2,1, 7, 1, 0, 2,15.00,30.00,Saturday
7,15.3
8,12.5
9,13.623522390841163
10,1.1
11,290.0
12,0.0
13,0.0
14,20.105101419663747
15,-26.651968061529587
16,20.74877610975161
17,21.125531935760435
18,-0.2228013799023982
19,-0.22415377454380203
20,0.07259814594413955
21,-0.009661478304112446
22,-0.059478254020418224
23,0.0
24,0.009407742515405654
25,0.0004585712602958733
26,0.010772229633500451
27,0.019721401565562933
28,0.0
29,0.0008006486200579502
30,0.01020852391825721
31,0.0
32,4.296592614066367
33,71.3274836066267
34,0.0
35,0.0
36,0.0
37,72.2607013983215
38,0.0
39,9.883424272942321
40,8.631739530239116
41,9.37800309482654
42,0.0
2,1, 7, 1, 0, 2,30.00,45.00,Saturday
7,15.2
8,12.450000000000001
9,13.554584812043055
10,1.05
11,290.0
12,0.0
13,0.0
14,23.73925634632866
15,-25.540433924215943
16,20.67870687756487
17,20.81550839877563
18,-0.22723239450254396
19,-0.21464975370734354
20,0.0661745993748258
21,-0.008806622370702889
22,-0.054215566804471885
23,0.0
24,0.010086521308811932
25,0.0008639267363592957
26,0.009769573885354096
27,0.01899378884458259
28,0.0
29,0.0005423828562807706
30,0.010628118091431901
31,0.0
32,1.6473955550527593
33,65.0637424628272
34,0.0
35,0.0
36,0.0
37,72.53041830154702
38,0.0
39,8.964503650762854
40,9.255267610860741
41,9.75644315643762
42,0.0
2,1, 7, 1, 0, 2,45.00,60.00,Saturday
7,15.1
8,12.4
9,13.485456733279337
10,1.0
11,290.0
12,0.0
13,0.0
14,27.267863049020345
15,-24.25856942518454
16,20.67909388951642
17,20.33392376490564
18,-0.2289116637185028
19,-0.2117546812224555
20,0.06004617537531749
21,-0.007991041824676132
22,-0.04919466779049359
23,0.0
24,0.012579952198201589
25,0.00182821183670417
26,0.008017941738991157
27,0.018769683648984587
28,0.0
29,0.0001732263547514595
30,0.012753357335735566
31,0.0
32,0.0
33,54.301393013329545
34,6.072273972613072
35,0.0
36,0.0
37,80.63753247261636
38,0.0
39,7.359908061241587
40,11.547058639809244
41,11.690172231036168
42,0.0
2,1, 7, 1, 0, 3, 0.00,15.00,Saturday
7,15.0
8,12.375
9,13.441996803530513
10,0.925
11,310.0
12,0.0
13,0.0
14,30.68369298196307
15,-22.816348511955272
16,20.976572165086004
17,20.21093106223774
18,-0.24496569081501193
19,-0.19176524445408274
20,0.03522991047971232
21,0.02355897051936122
22,-0.04087151839904253
23,0.0
24,0.011535637748126057
25,0.00622451002348129
26,0.0031591516160531454
27,0.009524841731942948
28,0.0010545872351628773
29,0.00009258062037898517
30,0.011628458099627212
31,0.0
32,0.0
33,30.63520858534501
34,10.744106545398196
35,0.0
36,0.0
37,73.71101552853698
38,0.0
39,3.870983991308839
40,10.597444619330359
41,10.654635377595325
42,0.0
2,1, 7, 1, 0, 3,15.00,30.00,Saturday
7,14.899999999999999
8,12.350000000000001
9,13.398114757371479
10,0.85
11,330.0
12,0.0
13,0.0
14,33.98241537206135
15,-21.224115748023042
16,20.78951163739024
17,19.66251288131187
18,-0.25856308782097903
19,-0.18113634152411828
20,0.010041960050699949
21,0.03961770321207746
22,-0.02305709364095391
23,0.0
24,0.014041404440824603
25,0.013443468929188542
26,0.0
27,0.005014038438862906
28,0.004415637753565856
29,0.0
30,0.01404145044827946
31,0.0
32,0.0
33,31.62851174760484
34,19.281484750234846
35,0.0
36,0.0
37,81.41525322838157
38,0.0
39,4.057343689998047
40,12.903038036989763
41,12.853271810452622
42,0.0
2,1, 7, 1, 0, 3,30.00,45.00,Saturday
7,14.799999999999999
8,12.325000000000001
9,13.353822411582643
10,0.7749999999999999
11,350.0
12,0.0
13,0.0
14,37.16231276177653
15,-19.49232316710142
16,20.2176171592702
17,19.44330782829767
18,-0.24097047132016225
19,-0.16668980213458356
20,-0.017960469613431344
21,0.03926083127102982
22,-0.01833602512062465
23,0.0
24,0.014417216383757064
25,0.017861386714963384
26,0.0
27,0.0028951677419837515
28,0.006339165144623323
29,0.0
30,0.014417558330592354
31,0.0
32,0.0
33,41.81005959973519
34,13.589193123966158
35,0.0
36,0.0
37,81.48384202337348
38,0.0
39,5.815710900334837
40,13.22657916604112
41,13.1917398432795
42,0.0
2,1, 7, 1, 0, 3,45.00,60.00,Saturday
7,14.7
8,12.3
9,13.309121274226916
10,0.7
11,10.0
12,0.0
13,0.0
14,40.22393066855575
15,-17.631311939180154
16,20.02790569042439
17,19.131030455501325
18,-0.2428053972192581
19,-0.16174087377665192
20,-0.02994203082117996
21,0.03204106608180226
22,-0.01496417099556003
23,0.0
24,0.015143667339840957
25,0.018710269441199343
26,0.0
27,0.002796851850353985
28,0.006363333644659274
29,0.0
30,0.01514397285464067
31,0.0
32,0.0
33,41.285681649622575
34,16.544629653654546
35,0.0
36,0.0
37,81.70623601840052
38,0.0
39,5.836117691293724
40,13.888896282266376
41,13.846439982887674
42,0.0
2,1, 7, 1, 0, 4, 0.00,15.00,Saturday
7,14.624999999999998
8,12.250000000000002
9,13.23725447019623
10,0.6499999999999999
11,10.0
12,0.0
13,0.0
14,43.16970270614778
15,-15.651141198553292
16,19.977503933368833
17,18.879889166778106
18,-0.2465588196132777
19,-0.16310505407841716
20,-0.025825914503193683
21,0.027636396414182654
22,-0.01290705373495018
23,0.0
24,0.015638263442231907
25,0.017696586944222405
26,0.0
27,0.003487223426579825
28,0.005545330022169235
29,0.0
30,0.015638585791616578
31,0.0
32,0.0
33,36.15303982659847
34,20.908249581720128
35,0.0
36,0.0
37,81.04757497219582
38,0.0
39,5.083538541341062
40,14.337142959756786
41,14.282465557400725
42,0.0
2,1, 7, 1, 0, 4,15.00,30.00,Saturday
7,14.55
8,12.2
9,13.165396076027074
10,0.6
11,10.0
12,0.0
13,0.0
14,46.0035833106129
15,-13.561462117227094
16,19.868283901095875
17,18.678652657453135
18,-0.2508392869141953
19,-0.15855099369419243
20,-0.022012796364629616
21,0.02355596609918121
22,-0.011001366302039583
23,0.0
24,0.01571404331810845
25,0.016601347592971133
26,0.0
27,0.0040590131604965
28,0.004946185974671308
29,0.0
30,0.01571428123700962
31,0.0
32,0.0
33,32.04874755837929
34,22.77681881258996
35,0.0
36,0.0
37,79.04344130159328
38,0.0
39,4.533765371215163
40,14.405261370677442
41,14.345453109195065
42,0.0
2,1, 7, 1, 0, 4,30.00,45.00,Saturday
7,14.475000000000001
8,12.149999999999999
9,13.093537156350267
10,0.55
11,10.0
12,0.0
13,0.0
14,48.730710289967654
15,-11.371432542783248
16,19.749828708979127
17,18.492474098890312
18,-0.25116294601885547
19,-0.1537761141038885
20,-0.018502981370400514
21,0.0198001014807584
22,-0.009247261109573048
23,0.0
24,0.01573956006601859
25,0.015533044989928775
26,0.0
27,0.004586796745382869
28,0.004380193819508881
29,0.0
30,0.015739742556881053
31,0.0
32,0.0
33,28.156555065733894
34,24.1185634029349
35,0.0
36,0.0
37,77.05882897394329
38,0.0
39,4.0143895275289285
40,14.426518794712607
41,14.363278945875226
42,0.0
2,1, 7, 1, 0, 4,45.00,60.00,Saturday
7,14.4
8,12.1
9,13.02167523092577
10,0.5
11,10.0
12,0.0
13,0.0
14,51.357110444011354
15,-9.089666089235312
16,19.642227399708634
17,18.31059491189739
18,-0.25047438736187694
19,-0.1495249685039224
20,-0.015296774232836112
21,0.016369128632584752
22,-0.0076448904440615875
23,0.0
24,0.015762364220978955
25,0.014498738712027313
26,0.0
27,0.005111347521533972
28,0.003847705629917725
29,0.0
30,0.0157624896090871
31,0.0
32,0.0
33,24.586929592840537
34,25.58675686104473
35,0.0
36,0.0
37,75.1360069923611
38,0.0
39,3.5259960916728255
40,14.445840232037071
41,14.378814506791679
42,0.0
2,1, 7, 1, 0, 5, 0.00,15.00,Saturday
7,14.3
8,12.075
9,12.976093271850473
10,0.425
11,10.0
12,0.0
13,0.0
14,53.88945433841395
15,-6.7242091687277785
16,19.55852373682526
17,18.117323237095047
18,-0.25072298743121996
19,-0.14551402874577551
20,-0.011055871115534879
21,0.011830924198841028
22,-0.005525408308667864
23,0.0
24,0.015876948806484124
25,0.0130345942004331
26,0.0
27,0.005949405143850139
28,0.003107825722614035
29,0.0
30,0.015876956143482144
31,0.0
32,0.0
33,19.92771634387889
34,27.901979150922113
35,0.0
36,0.0
37,73.9021512342012
38,0.0
39,2.8481753794667837
40,14.550868414169381
41,14.478698133240725
42,0.0
2,1, 7, 1, 0, 5,15.00,30.00,Saturday
7,14.2
8,12.05
9,12.930109074898892
10,0.35
11,10.0
12,0.0
13,0.0
14,56.33486119493952
15,-4.2825397514018295
16,19.45244217950521
17,17.936994009921815
18,-0.2516506087633019
19,-0.14139157133889835
20,-0.007500785457175197
21,0.00802661529320077
22,-0.003748678132506053
23,0.0
24,0.01588630100536609
25,0.011644407781820963
26,0.00013663907459679115
27,0.00682134728158873
28,0.002446177565008763
29,0.0
30,0.015886095092885133
31,0.0
32,0.0
33,16.547879319082664
34,29.366611477424694
35,0.0
36,0.0
37,72.41372840260665
38,0.0
39,2.367001795090279
40,14.5590121527786
41,14.48309447167624
42,0.0
2,1, 7, 1, 0, 5,30.00,45.00,Saturday
7,14.1
8,12.025
9,12.883727940306015
10,0.275
11,10.0
12,0.0
13,0.0
14,58.70075161730454
15,-1.7715823507148025
16,19.314381220268583
17,17.765753668718812
18,-0.2515625606467517
19,-0.13795774483947837
20,-0.004632248789164608
21,0.004956984729839466
22,-0.0023150655140599928
23,0.0
24,0.015869295164884896
25,0.010594345934718575
26,0.00043913894889996435
27,0.007617534101061776
28,0.0019034460090550849
29,0.0
30,0.015869519614953052
31,0.0
32,0.0
33,14.90514098476469
34,29.987901793879065
35,0.0
36,0.0
37,70.98373960025427
38,0.0
39,2.1465768000084915
40,14.54168404512968
41,14.464500757658914
42,0.0
2,1, 7, 1, 0, 5,45.00,60.00,Saturday
7,14.0
8,12.0
9,12.836940910203902
10,0.2
11,10.0
12,16.5
13,181.5
14,60.99474416458865
15,0.802265369589559
16,19.17987517603043
17,17.60142661408198
18,-0.2501465209394342
19,-0.13499064455443638
20,-0.002450995970558465
21,0.0026228188838595293
22,-0.001224937714876753
23,0.0
24,0.015832181335200205
25,0.009820642040492837
26,0.0007228184200471446
27,0.00824130135726999
28,0.0015069437290335832
29,0.0
30,0.015832405336912252
31,0.0
32,0.0
33,14.098284833069487
34,30.50451431918133
35,0.0
36,0.0
37,69.59912390193057
38,0.0
39,2.042964271651042
40,14.50608767207017
41,14.427544653016213
42,0.0
2,1, 7, 1, 0, 6, 0.00,15.00,Saturday
7,14.15
8,12.1
9,12.956746495525758
10,0.15000000000000002
11,10.0
12,24.75
13,272.25
14,63.22459122547986
15,3.4330980332371763
16,19.07935687319685
17,17.591563786047164
18,-0.2356202063374075
19,-0.12227133214650861
20,-0.0013778294462981479
21,0.0014744198415247043
22,-0.000688599766671096
23,0.0
24,0.015115474542035585
25,0.009125761163310757
26,0.000881066653410453
27,0.008212654121592854
28,0.0013428180391708287
29,0.0
30,0.015115643597662551
31,0.0
32,0.0
33,13.37428346467766
34,27.434943279112854
35,0.0
36,0.0
37,63.46646695503929
38,0.0
39,2.0358451001079625
40,13.83586992001983
41,13.766790164065892
42,0.0
2,1, 7, 1, 0, 6,15.00,30.00,Saturday
7,14.3
8,12.2
9,13.076297411430398
10,0.1
11,10.0
12,33.0
13,363.0
14,65.39814989300928
15,6.115462813854696
16,19.03914360490228
17,17.575450155985227
18,-0.2223606302286951
19,-0.11601545014754155
20,-0.0006119884458457048
21,0.0006548908573285928
22,-0.0003058543291747658
23,0.0
24,0.014784073431923136
25,0.00866192546834114
26,0.0009560605387669666
27,0.008243703739323203
28,0.0011664781080255211
29,0.0
30,0.014784222262103169
31,0.0
32,0.0
33,12.266005811967712
34,26.384771601879805
35,0.0
36,0.0
37,59.04879384645256
38,0.0
39,1.941800455481018
40,13.523191522328707
41,13.457161682552702
42,0.0
2,1, 7, 1, 0, 6,30.00,45.00,Saturday
7,14.45
8,12.3
9,13.195590692992605
10,0.05
11,10.0
12,43.5
13,418.0
14,67.52338432575586
15,8.844316509901184
16,18.99503342766108
17,17.55535472536387
18,-0.21273568296113346
19,-0.10994850258435546
20,-0.00015290210069041508
21,0.00016362104299226375
22,-0.00007641609862659076
23,0.0
24,0.014425363980662683
25,0.00830986500318671
26,0.0010172143975310578
27,0.008203014373953453
28,0.0010711256135583823
29,0.0
30,0.014425538988813056
31,0.0
32,0.0
33,11.568200818942707
34,25.309404415836532
35,0.0
36,0.0
37,54.59648202106419
38,0.0
39,1.9092295040444547
40,13.186271127255882
41,13.122912065031516
42,0.0
2,1, 7, 1, 0, 6,45.00,60.00,Saturday
7,14.6
8,12.4
9,13.314626352431446
10,0.0
11,10.0
12,54.0
13,473.0
14,69.60839723048406
15,11.614980733351857
16,18.945857722392162
17,17.552885794180852
18,-0.20358116087372297
19,-0.1038036689040526
20,0.0
21,0.0
22,0.0
23,0.0
24,0.014026533011476187
25,0.008049759373430025
26,0.001036810065056357
27,0.008049759373430025
28,0.001036810065056357
29,0.0
30,0.014026737521172122
31,0.0
32,0.0
33,10.977721613625071
34,23.7992624273011
35,0.0
36,0.0
37,50.455056682108555
38,0.0
39,1.8944630617859466
40,12.81289247898531
41,12.753365629491322
42,0.0
2,1, 7, 1, 0, 7, 0.00,15.00,Saturday
7,15.25
8,12.8
9,13.784282059478448
10,0.125
11,10.0
12,64.5
13,528.0
14,71.66148951861048
15,14.423095922788672
16,18.98974466928908
17,17.84968939973174
18,-0.1673501900435584
19,-0.07773768181243913
20,-0.0009525451053593411
21,0.0010193216635501808
22,-0.0004760548114691708
23,0.0
24,0.012031374705814469
25,0.0074530390580477114
26,0.0008660590235434151
27,0.006707516531978923
28,0.0012631661113642393
29,0.0
30,0.01203162375227762
31,0.0
32,0.0
33,9.678645024940955
34,16.667614358078286
35,0.0
36,0.0
37,38.01811797948801
38,0.0
39,1.9412392775295964
40,10.964277728996041
41,10.926010530804502
42,0.0
2,1, 7, 1, 0, 7,15.00,30.00,Saturday
7,15.899999999999999
8,13.2
9,14.246904556081581
10,0.25
11,10.0
12,75.0
13,583.0
14,73.69124885546096
15,17.264574374217602
16,19.1267180793799
17,18.148349913427626
18,-0.13508621066132023
19,-0.06481321525894204
20,-0.0038002237838216197
21,0.004066632023400832
22,-0.001899243203045365
23,0.0
24,0.01070994758756674
25,0.008104208929701881
26,0.00022516802303310693
27,0.00479096932809937
28,0.001961172639705778
29,0.0
30,0.010710248293562145
31,0.0
32,0.0
33,8.556096349267909
34,12.70388569406345
35,0.0
36,0.0
37,29.20479413270436
38,0.0
39,1.9897982075610308
40,9.741798588175472
41,9.714151937542583
42,0.0
2,1, 7, 1, 0, 7,30.00,45.00,Saturday
7,16.549999999999997
8,13.6
9,14.70236737395719
10,0.375
11,10.0
12,82.25
13,617.5
14,75.70666978720917
15,20.135552007239788
16,19.18520411268407
17,18.44692459990873
18,-0.10808018057740836
19,-0.05292791707606181
20,-0.008528197421423942
21,0.009126052229737563
22,-0.004262149259689156
23,0.0
24,0.008930603286244843
25,0.010095059109835543
26,0.0
27,0.0023848988086715567
28,0.0035493535697090025
29,0.0
30,0.008930728848728982
31,0.0
32,0.0
33,11.319007503927665
34,7.976261046042346
35,0.0
36,0.0
37,20.501031201997304
38,0.0
39,3.223671684303193
40,8.106646607322217
41,8.090250641646547
42,0.0
2,1, 7, 1, 0, 7,45.00,60.00,Saturday
7,17.2
8,14.0
9,15.15054910423831
10,0.5
11,10.0
12,89.5
13,652.0
14,77.71731051703462
15,23.032338110765867
16,19.20317658023965
17,18.76780965723176
18,-0.07871110594508954
19,-0.045772696462368506
20,-0.015121762959391511
21,0.016181848490800503
22,-0.00755742481296875
23,0.0
24,0.006693086942379026
25,0.012643835702866247
26,0.0
27,0.0002537460307655792
28,0.006204370043254995
29,0.0
30,0.006692754761169757
31,0.0
32,0.0
33,14.992544287635676
34,3.4855295516487237
35,0.0
36,0.0
37,12.729375499867007
38,0.0
39,5.62621640703926
40,6.065859896470043
41,6.05944609255702
42,0.0
2,1, 7, 1, 0, 8, 0.00,15.00,Saturday
7,17.45
8,14.05
9,15.301384248743707
10,0.975
11,10.0
12,96.75
13,686.5
14,79.73349441361124
15,25.95136179231785
16,18.775742967843023
17,19.0901909383238
18,-0.05792575496140919
19,-0.07053611969949045
20,-0.05744497209813307
21,0.06147205438588998
22,-0.028709354767732564
23,0.00018784473445205335
24,0.002114820778121739
25,0.020896383008410537
26,0.0
27,0.0
28,0.01896936136941986
29,0.001548191853455126
30,0.0034752403410311344
31,0.0
32,0.7209662121946522
33,30.322970881964338
34,0.0
35,0.0
36,0.0
37,6.85711200542303
38,0.053488197975434
39,17.160432300889592
40,1.9130851043045323
41,3.147289453528849
42,0.17012705477280538
2,1, 7, 1, 0, 8,15.00,30.00,Saturday
7,17.7
8,14.1
9,15.450715704941567
10,1.45
11,10.0
12,104.0
13,721.0
14,81.76656828419087
15,28.88911322456372
16,18.55188482119674
17,19.33159042158805
18,-0.0657086281393491
19,-0.09276826766696615
20,-0.12692875709505694
21,0.13582688221959008
22,-0.06343536404620816
23,0.005299047666535029
24,0.0
25,0.02694275007379969
26,0.0
27,0.0
28,0.03224179775179739
29,0.005513202571730818
30,0.00021408322759598346
31,0.0
32,0.0
33,33.110169284497736
34,0.0
35,0.0
36,0.0
37,0.4210648577510135
38,4.98049555164286
39,29.102326556933043
40,0.0
41,0.19375366323431403
42,4.795296646952329
2,1, 7, 1, 0, 8,30.00,45.00,Saturday
7,17.95
8,14.149999999999999
9,15.598530123440932
10,1.9249999999999998
11,10.0
12,108.25
13,743.0
14,83.82923479712734
15,31.84207695476928
16,18.549274369716464
17,19.236279887449466
18,-0.07789796111658219
19,-0.12967278550865885
20,-0.2234948934722163
21,0.23916262371967048
22,-0.11169635829066725
23,0.00989117318789392
24,0.0
25,0.034200531981050566
26,0.0
27,0.0
28,0.044091705191182884
29,0.009891311035083646
30,0.0
31,0.0
32,0.0
33,31.82565531471602
34,0.0
35,0.0
36,0.0
37,0.0
38,8.184104640963733
39,39.763943101212554
40,0.0
41,0.0
42,8.940507525471856
2,1, 7, 1, 0, 8,45.00,60.00,Saturday
7,18.2
8,14.2
9,15.744820187257806
10,2.4
11,10.0
12,112.5
13,765.0
14,85.93598388560372
15,34.80665339089467
16,18.630388507765534
17,19.14157853970793
18,-0.10557258134282066
19,-0.16758578652604886
20,-0.3470656578911121
21,0.3713961068848791
22,-0.17345349359855056
23,0.014150923540665066
24,0.0
25,0.04161554264594901
26,0.0
27,0.0
28,0.05576658649018691
29,0.014149996840630086
30,0.0
31,0.0
32,0.0
33,28.884390068194
34,0.0
35,0.0
36,0.0
37,0.0
38,8.704807638922073
39,50.26371271840868
40,0.0
41,0.0
42,12.775530511244785
2,1, 7, 1, 0, 9, 0.00,15.00,Saturday
7,18.45
8,14.45
9,15.977886325256303
10,2.65
11,10.0
12,116.75
13,787.0
14,88.10365853180583
15,37.77906291129234
16,18.776850630774252
17,19.184010138010798
18,-0.12138836262006472
19,-0.18501978217844883
20,-0.4226632292325591
21,0.45229331768000214
22,-0.2112349985057678
23,0.016490013349438806
24,0.0
25,0.04545776032221173
26,0.0
27,0.0
28,0.06195311926845449
29,0.01649190662125182
30,0.0
31,0.0
32,0.0
33,24.3492354018182
34,0.0
35,0.0
36,0.0
37,0.0
38,8.071978515851276
39,55.820003255220044
40,0.0
41,0.0
42,14.874266344082487
2,1, 7, 1, 0, 9,15.00,30.00,Saturday
7,18.7
8,14.7
9,16.210966273939405
10,2.9
11,10.0
12,121.0
13,809.0
14,90.35220554267657
15,40.755224566518166
16,18.740726003242692
17,19.17555726375548
18,-0.004387390503553872
19,-0.14045573315640172
20,-0.5056045664115341
21,0.5410491165546975
22,-0.2526867076286051
23,0.0284732785388991
24,0.0
25,0.4972753319419161
26,0.0
27,0.0
28,0.5257486109033557
29,0.0284736750505918
30,0.0
31,0.0
32,0.0
33,25.72572664163357
34,0.0
35,0.0
36,0.0
37,0.0
38,14.872859289533697
39,473.23594236714007
40,0.0
41,0.0
42,25.660301805418367
2,1, 7, 1, 0, 9,30.00,45.00,Saturday
7,18.95
8,14.95
9,16.44406020289414
10,3.15
11,10.0
12,122.75
13,824.0
14,92.70568402983633
15,43.730597579592015
16,19.131794179706212
17,19.35454710290657
18,-0.16781538585217332
19,-0.23910759185857883
20,-0.5958638866996753
21,0.6376359133261839
22,-0.2977957354965264
23,0.020412531440438815
24,0.0
25,0.05357497128027771
26,0.0
27,0.0
28,0.07398956837005313
29,0.020412844359268496
30,0.0
31,0.0
32,0.0
33,16.14620690501429
34,0.0
35,0.0
36,0.0
37,0.0
38,5.452388321069837
39,66.67420744796709
40,0.0
41,0.0
42,18.405573352091974
2,1, 7, 1, 0, 9,45.00,60.00,Saturday
7,19.2
8,15.2
9,16.67716745923943
10,3.4
11,10.0
12,124.5
13,839.0
14,95.19363652948925
15,46.699968042839956
16,19.341092574228057
17,19.543223405121957
18,-0.19455033461514337
19,-0.27814646073716764
20,-0.6934153152418823
21,0.7420260192265521
22,-0.34654915059668556
23,0.02203609299081462
24,0.0
25,0.05782745757481097
26,0.0
27,0.0
28,0.07986355881445381
29,0.022036320150646518
30,0.0
31,0.0
32,0.0
33,13.516430256240676
34,0.0
35,0.0
36,0.0
37,0.0
38,5.342001309002218
39,71.91142401806185
40,0.0
41,0.0
42,19.850689780875488
2,1, 7, 1, 0,10, 0.00,15.00,Saturday
7,19.549999999999997
8,15.399999999999999
9,16.91238235562167
10,3.275
11,12.5
12,126.25
13,854.0
14,97.8529744453247
15,49.65715411269911
16,19.631063621976992
17,19.719398794593673
18,-0.1867481343015199
19,-0.25601137445500566
20,-0.6668538025207347
21,0.6736754286284485
22,-0.3229176434257141
23,0.02070678233417503
24,0.0
25,0.056278593590582106
26,0.0
27,0.0
28,0.07698537702092735
29,0.02070706047836194
30,0.0
31,0.0
32,0.0
33,7.477176764658772
34,0.0
35,0.0
36,0.0
37,0.0
38,2.191199960101252
39,69.3055267039723
40,0.0
41,0.0
42,18.642580887208034
2,1, 7, 1, 0,10,15.00,30.00,Saturday
7,19.9
8,15.6
9,17.145530716887606
10,3.15
11,15.0
12,128.0
13,869.0
14,100.7305959826039
15,52.59458859093152
16,19.91021320725813
17,19.97706813209491
18,-0.12559905364086027
19,-0.19111465385574772
20,-0.6385877858670537
21,0.6095843769467911
22,-0.30001230481158725
23,0.026267603171660908
24,0.0
25,0.3071139587523269
26,0.0
27,0.0
28,0.33338661100168754
29,0.026267729861469805
30,0.0
31,0.0
32,0.0
33,4.9148733651693055
34,0.0
35,0.0
36,0.39681144289721354
37,0.0
38,2.9182283567590224
39,300.1039544514142
40,0.0
41,0.0
42,23.65892440399024
2,1, 7, 1, 0,10,30.00,45.00,Saturday
7,20.25
8,15.8
9,17.376572301686394
10,3.025
11,17.5
12,128.0
13,878.75
14,103.88704464876542
15,55.50271478458659
16,20.251464223051478
17,20.37617866487546
18,-0.05206875176182495
19,-0.1642495164517554
20,-0.6088371981617134
21,0.5496145523783701
22,-0.277846125141409
23,0.02773505086594439
24,0.0
25,0.5359689521051818
26,0.0
27,0.0
28,0.5637100915205729
29,0.027737477960328376
30,0.0
31,1.670340199025308
32,0.0
33,2.65648594112118
34,0.0
35,0.0
36,0.0
37,0.0
38,4.130080336588158
39,507.6781445860378
40,0.0
41,0.0
42,24.988775565535583
2,1, 7, 1, 0,10,45.00,60.00,Saturday
7,20.6
8,16.0
9,17.605496263981625
10,2.9
11,20.0
12,128.0
13,888.5
14,107.40162330326338
15,58.36909490618041
16,20.598630248783458
17,20.626484533598926
18,-0.10050580262745068
19,-0.17668195342151202
20,-0.577820729506508
21,0.493628389094938
22,-0.2564320121663864
23,0.07494956133236795
24,0.0
25,0.4849124818528417
26,0.0
27,0.0
28,0.5598644749579735
29,0.07495143490791835
30,0.0
31,2.473664293771013
32,0.0
33,1.7370404831491992
34,0.0
35,0.0
36,0.0
37,0.0
38,2.3439644087869502
39,504.19985984446686
40,0.0
41,0.0
42,67.47642847732665
2,1, 7, 1, 0,11, 0.00,15.00,Saturday
7,21.3
8,16.0
9,17.861094150259284
10,3.15
11,15.0
12,128.0
13,898.25
14,111.37945931836092
15,61.17707302676933
16,21.227190123466713
17,20.979192521430896
18,-0.1423560310138712
19,-0.1959244601299846
20,-0.6352518431413414
21,0.6063999462185672
22,-0.29844505926131176
23,0.024338716882007547
24,0.0
25,0.22306253526403258
26,0.0
27,0.0
28,0.247401686823572
29,0.02433851356448162
30,0.0
31,8.543750581358516
32,0.0
33,0.0
34,0.0
35,0.0
36,6.625955451717353
37,0.0
38,0.0
39,222.69930842933744
40,0.0
41,0.0
42,21.900196941217303
2,1, 7, 1, 0,11,15.00,30.00,Saturday
7,22.0
8,16.0
9,18.09590584899636
10,3.4
11,10.0
12,128.0
13,908.0
14,115.96091316773986
15,63.90375015929878
16,21.816154609404588
17,21.34343314950241
18,-0.1844169004123768
19,-0.24198104248796617
20,-0.6862140437879205
21,0.7343199148574999
22,-0.34295016100021825
23,0.023166317292137174
24,0.0
25,0.057185657185914146
26,0.0
27,0.0
28,0.08035202374776512
29,0.02316597692404171
30,0.0
31,17.55772246465663
32,0.0
33,0.0
34,0.0
35,0.0
36,13.02577207790311
37,0.0
38,0.0
39,72.32040792274204
40,0.0
41,0.0
42,20.817190181997496
2,1, 7, 1, 0,11,30.00,45.00,Saturday
7,22.699999999999996
8,16.0
9,18.309000316758983
10,3.65
11,5.0
12,127.75
13,913.0
14,121.3329572563638
15,66.51692354051191
16,22.433811411377167
17,21.918766300575037