Program Version,EnergyPlus, Version 22.2.0-c249759bad, YMD=2025.09.24 10:30
1,5,Environment Title[],Latitude[deg],Longitude[deg],Time Zone[],Elevation[m]
2,8,Day of Simulation[],Month[],Day of Month[],DST Indicator[1=yes 0=no],Hour[],StartMinute[],EndMinute[],DayType
3,5,Cumulative Day of Simulation[],Month[],Day of Month[],DST Indicator[1=yes 0=no],DayType  ! When Daily Report Variables Requested
4,2,Cumulative Days of Simulation[],Month[]  ! When Monthly Report Variables Requested
5,1,Cumulative Days of Simulation[] ! When Run Period Report Variables Requested
6,1,Calendar Year of Simulation[] ! When Annual Report Variables Requested
7,1,Environment,Site Outdoor Air Drybulb Temperature [C] !TimeStep
8,1,Environment,Site Outdoor Air Dewpoint Temperature [C] !TimeStep
9,1,Environment,Site Outdoor Air Wetbulb Temperature [C] !TimeStep
10,1,Environment,Site Wind Speed [m/s] !TimeStep
11,1,Environment,Site Wind Direction [deg] !TimeStep
12,1,Environment,Site Diffuse Solar Radiation Rate per Area [W/m2] !TimeStep
13,1,Environment,Site Direct Solar Radiation Rate per Area [W/m2] !TimeStep
14,1,Environment,Site Solar Azimuth Angle [deg] !TimeStep
15,1,Environment,Site Solar Altitude Angle [deg] !TimeStep
16,1,BLOCK `ROOM1` STOREY 0,Zone Mean Air Temperature [C] !TimeStep
17,1,BLOCK `ROOM2` STOREY 0,Zone Mean Air Temperature [C] !TimeStep
18,1,BLOCK `ROOM1` STOREY 0,AFN Node Total Pressure [Pa] !TimeStep
19,1,BLOCK `ROOM2` STOREY 0,AFN Node Total Pressure [Pa] !TimeStep
20,1,ExtNode   1,AFN Node Total Pressure [Pa] !TimeStep
21,1,ExtNode   2,AFN Node Total Pressure [Pa] !TimeStep
22,1,ExtNode   3,AFN Node Total Pressure [Pa] !TimeStep
23,1,DOOR__BLOCK `ROOM1` STOREY 0 WALL 0002,AFN Linkage Node 1 to Node 2 Volume Flow Rate [m3/s] !TimeStep
24,1,DOOR__BLOCK `ROOM1` STOREY 0 WALL 0002,AFN Linkage Node 2 to Node 1 Volume Flow Rate [m3/s] !TimeStep
25,1,WINDOW__BLOCK `ROOM1` STOREY 0 WALL 0001,AFN Linkage Node 1 to Node 2 Volume Flow Rate [m3/s] !TimeStep
26,1,WINDOW__BLOCK `ROOM1` STOREY 0 WALL 0001,AFN Linkage Node 2 to Node 1 Volume Flow Rate [m3/s] !TimeStep
27,1,WINDOW__BLOCK `ROOM2` STOREY 0 WALL 0003,AFN Linkage Node 1 to Node 2 Volume Flow Rate [m3/s] !TimeStep
28,1,WINDOW__BLOCK `ROOM2` STOREY 0 WALL 0003,AFN Linkage Node 2 to Node 1 Volume Flow Rate [m3/s] !TimeStep
29,1,BLOCK `ROOM1` STOREY 0 WALL 0004_1,AFN Linkage Node 1 to Node 2 Volume Flow Rate [m3/s] !TimeStep
30,1,BLOCK `ROOM1` STOREY 0 WALL 0004_1,AFN Linkage Node 2 to Node 1 Volume Flow Rate [m3/s] !TimeStep
31,1,BLOCK `ROOM1` STOREY 0,AFN Zone Ventilation Sensible Heat Gain Rate [W] !TimeStep
32,1,BLOCK `ROOM1` STOREY 0,AFN Zone Mixing Sensible Heat Gain Rate [W] !TimeStep
33,1,BLOCK `ROOM1` STOREY 0,AFN Zone Ventilation Sensible Heat Loss Rate [W] !TimeStep
34,1,BLOCK `ROOM1` STOREY 0,AFN Zone Mixing Sensible Heat Loss Rate [W] !TimeStep
35,1,BLOCK `ROOM2` STOREY 0,AFN Zone Ventilation Sensible Heat Gain Rate [W] !TimeStep
36,1,BLOCK `ROOM2` STOREY 0,AFN Zone Mixing Sensible Heat Gain Rate [W] !TimeStep
37,1,BLOCK `ROOM2` STOREY 0,AFN Zone Ventilation Sensible Heat Loss Rate [W] !TimeStep
38,1,BLOCK `ROOM2` STOREY 0,AFN Zone Mixing Sensible Heat Loss Rate [W] !TimeStep
39,1,BLOCK `ROOM1` STOREY 0,AFN Zone Ventilation Volume [m3] !TimeStep
40,1,BLOCK `ROOM1` STOREY 0,AFN Zone Mixing Volume [m3] !TimeStep
41,1,BLOCK `ROOM2` STOREY 0,AFN Zone Ventilation Volume [m3] !TimeStep
42,1,BLOCK `ROOM2` STOREY 0,AFN Zone Mixing Volume [m3] !TimeStep
End of Data Dictionary
1,SUMMER,  37.46,-122.11,  -8.00,   1.00
2,1, 7, 1, 0, 1, 0.00,15.00,Saturday
7,18.65
8,13.500000000000002
9,15.506138388388512
10,1.425
11,305.0
12,0.0
13,0.0
14,0.813845992880616
15,-29.37040777546127
16,21.976999898418832
17,22.153293809895956
18,-0.14516057803601884
19,-0.1680639505555548
20,0.0961248433086844
21,0.04148673878413782
22,-0.14804199923907962
23,0.0
24,0.022120010511660113
25,0.0002957333399936783
26,0.010224625848001658
27,0.032053334762990215
28,0.0
29,0.280466073023272
30,0.248415953560802
31,0.0
32,111.52082903373498
33,127.42765534089489
34,89.74272480851265
35,0.0
36,98.49516745823745
37,0.0
38,130.63677025522742
39,29.4515322288892
40,226.36460473508242
41,0.0
42,255.6324794853428
2,1, 7, 1, 0, 1,15.00,30.00,Saturday
7,17.6
8,13.2
9,14.95520882365769
10,1.35
11,300.0
12,0.0
13,0.0
14,4.763802213187274
15,-29.225541798861435
16,21.632776173695678
17,21.856371510142615
18,-0.19268608780562485
19,-0.22989243167305415
20,0.09891732140550405
21,0.025072725305628117
22,-0.14361515078705242
23,0.0
24,0.02376717118515771
25,0.0015764367450402767
26,0.007367722895239353
27,0.029531284946151676
28,0.0
29,0.27645496311069506
30,0.24691234276566024
31,0.0
32,113.44898165468976
33,149.87705806807526
34,104.39255408574756
35,0.0
36,112.8192342969666
37,0.0
38,134.31625576882294
39,28.422829480319088
40,225.5708355764792
41,0.0
42,252.5962497705765
2,1, 7, 1, 0, 1,30.00,45.00,Saturday
7,16.55
8,12.899999999999999
9,14.372986587507057
10,1.275
11,295.0
12,0.0
13,0.0
14,8.687533996163891
15,-28.87684189434883
16,21.007630054645823
17,21.683818323965387
18,-0.24753399668970294
19,-0.281908007139676
20,0.09282511463462728
21,0.004767296049141559
22,-0.12111664838505753
23,0.0
24,0.024540534904339786
25,0.0037081212809568767
26,0.00502100234577223
27,0.025843209782532302
28,0.0
29,0.16572548729170955
30,0.13987429972672502
31,0.0
32,56.552182214114396
33,158.80176467360047
34,2.0708233753476453
35,0.0
36,2.265879480893661
37,0.0
38,79.40443839765904
39,27.03120302316067
40,128.15312424997708
41,0.0
42,151.99607318548186
2,1, 7, 1, 0, 1,45.00,60.00,Saturday
7,15.5
8,12.6
9,13.760851984421823
10,1.2
11,290.0
12,0.0
13,0.0
14,12.564416911604267
15,-28.327824491869773
16,20.756144212997476
17,21.097520633594105
18,-0.285368179172245
19,-0.32214185575711995
20,0.08632920100018132
21,-0.011488829248013931
22,-0.10105334904075973
23,0.0
24,0.024408017307161058
25,0.006751324698690976
26,0.0031916560171806317
27,0.020907833889077618
28,0.00007143505127647101
29,0.24587070908005665
30,0.22502909199198953
31,0.0
32,86.16369495708184
33,174.41410486222262
34,67.54278808715873
35,0.0
36,70.0305797762649
37,0.43711678628533057
38,102.50450752197108
39,25.305381144251047
40,206.66039489521944
41,0.06544265317469787
42,225.84736718434448
2,1, 7, 1, 0, 2, 0.00,15.00,Saturday
7,15.4
8,12.549999999999999
9,13.692276921440287
10,1.15
11,290.0
12,0.0
13,0.0
14,16.37569581875607
15,-27.583868453319255
16,20.510319761691946
17,20.860047466878616
18,-0.27493868048440545
19,-0.31722469354800975
20,0.0793164634933403
21,-0.01055556283475163
22,-0.09284453206110826
23,0.0
24,0.02345438862252658
25,0.006161436795800793
26,0.002991221348349841
27,0.020226164654452494
28,0.0
29,0.19722902998205605
30,0.1769701611327532
31,0.0
32,75.06945439528468
33,164.17058174719008
34,0.0
35,0.0
36,0.0
37,0.0
38,83.69023955987137
39,24.238137311073594
40,162.35937719595302
41,0.0
42,181.14754263676315
2,1, 7, 1, 0, 2,15.00,30.00,Saturday
7,15.3
8,12.5
9,13.623522390841163
10,1.1
11,290.0
12,0.0
13,0.0
14,20.105101419663747
15,-26.651968061529587
16,20.354273170310762
17,20.602800616749697
18,-0.2655855560583329
19,-0.3127645030309261
20,0.07259814594413955
21,-0.009661478304112446
22,-0.08498035075975903
23,0.0
24,0.022244355501481936
25,0.006296565220252388
26,0.0027724838219467867
27,0.018653242990729117
28,0.0
29,0.2072786108178494
30,0.18858424395450843
31,0.0
32,57.00269975666657
33,153.65520647745635
34,0.0
35,0.0
36,0.0
37,0.0
38,62.65338063597195
39,22.907118795356446
40,172.83780842783148
41,0.0
42,190.11903882962812
2,1, 7, 1, 0, 2,30.00,45.00,Saturday
7,15.2
8,12.450000000000001
9,13.554584812043055
10,1.05
11,290.0
12,0.0
13,0.0
14,23.73925634632866
15,-25.540433924215943
16,20.127120576834887
17,20.58688062512804
18,-0.27044594307194464
19,-0.30159301928226157
20,0.0661745993748258
21,-0.008806622370702889
22,-0.07746121602866066
23,0.0
24,0.021404290174742605
25,0.005794613550879455
26,0.0032262948867446714
27,0.018814627854982925
28,0.0
29,0.16993113011172006
30,0.15109817069087061
31,0.0
32,84.51845045094548
33,147.52695510973183
34,0.0
35,0.0
36,0.0
37,0.0
38,95.05287678038285
39,22.543866957704658
40,138.42260142906764
41,0.0
42,155.91137375990346
2,1, 7, 1, 0, 2,45.00,60.00,Saturday
7,15.1
8,12.4
9,13.485456733279337
10,1.0
11,290.0
12,0.0
13,0.0
14,27.267863049020345
15,-24.25856942518454
16,20.246817760989643
17,20.31350396566279
18,-0.2595928318336549
19,-0.3168570832061166
20,0.06004617537531749
21,-0.007991041824676132
22,-0.07028753942425446
23,0.0
24,0.019650086397872718
25,0.006804689172642775
26,0.0023609487889792433
27,0.015206321815364146
28,0.0
29,0.22599845211879943
30,0.21079223538498096
31,0.0
32,17.108260141513327
33,137.76220946167294
34,0.0
35,0.0
36,0.0
37,0.0
38,18.342422828650594
39,20.161325085612305
40,193.2563393624454
41,0.0
42,207.22758434612507
2,1, 7, 1, 0, 3, 0.00,15.00,Saturday
7,15.0
8,12.375
9,13.441996803530513
10,0.925
11,310.0
12,0.0
13,0.0
14,30.68369298196307
15,-22.816348511955272
16,20.05621452380013
17,20.210436855588643
18,-0.24159830739916918
19,-0.3008863611666671
20,0.03522991047971232
21,0.02355897051936122
22,-0.05839572843618177
23,0.0006888234825754128
24,0.010295052224901775
25,0.0026122835460693434
26,0.006665249706946701
27,0.014367631878396736
28,0.0007083499508751604
29,0.20021952152562847
30,0.18655958265012157
31,0.0
32,39.351076416419545
33,102.39954606094852
34,105.95927102908337
35,0.0
36,108.57897379499487
37,4.174270987462821
38,50.105660064174536
39,15.536550037276227
40,171.14541637506315
41,0.6481638884832631
42,183.49324359090878
2,1, 7, 1, 0, 3,15.00,30.00,Saturday
7,14.899999999999999
8,12.350000000000001
9,13.398114757371479
10,0.85
11,330.0
12,0.0
13,0.0
14,33.98241537206135
15,-21.224115748023042
16,19.962656548875714
17,20.089024798142262
18,-0.25331121491345016
19,-0.2576568968579268
20,0.010041960050699949
21,0.03961770321207746
22,-0.03294313085310528
23,0.0056861173268302374
24,0.004648887504594362
25,0.0008724039989394735
26,0.01218566784359951
27,0.013632210354711113
28,0.0033377696524050683
29,0.3172616507265297
30,0.3069644676040376
31,0.0
32,207.54498064626821
33,97.71219210780235
34,175.3951232712065
35,0.0
36,173.30675912794138
37,19.12345797940148
38,224.71006783448084
39,15.404511166273522
40,281.48245820411455
41,3.0562337379251865
42,291.0242670041182
2,1, 7, 1, 0, 3,30.00,45.00,Saturday
7,14.799999999999999
8,12.325000000000001
9,13.353822411582643
10,0.7749999999999999
11,350.0
12,0.0
13,0.0
14,37.16231276177653
15,-19.49232316710142
16,19.74059792761736
17,20.05868184426486
18,-0.26226081197528867
19,-0.2801036238696049
20,-0.017960469613431344
21,0.03926083127102982
22,-0.026197841075757244
23,0.009537130110672344
24,0.0010389631538909926
25,0.0
26,0.01580707884338461
27,0.00890130337911059
28,0.0016043667656680993
29,0.14550156576962092
30,0.13819964398642942
31,0.0
32,44.43218896941701
33,100.81737975780223
34,8.793768912006108
35,0.0
36,8.875088357510496
37,10.026423449409764
38,48.95226307686976
39,15.429855533102767
40,126.71061748436873
41,1.4709060184786364
42,133.4990424992706
2,1, 7, 1, 0, 3,45.00,60.00,Saturday
7,14.7
8,12.3
9,13.309121274226916
10,0.7
11,10.0
12,0.0
13,0.0
14,40.22393066855575
15,-17.631311939180154
16,19.60554707970371
17,19.963653938656243
18,-0.26645021413544645
19,-0.28345477081534076
20,-0.02994203082117996
21,0.03204106608180226
22,-0.021380259406995325
23,0.011964409370135487
24,0.0002967834782310128
25,0.0
26,0.015088261550566789
27,0.006406744044668658
28,0.00298610082143182
29,0.12488442360293643
30,0.1214637887683632
31,0.0
32,28.46775218413779
33,91.3985304290847
34,4.403111049493345
35,0.0
36,4.401575837147521
37,18.865604533618566
38,31.648097695608644
39,14.087067530971689
40,111.38290819507455
41,2.7380159935996318
42,114.57915626055963
2,1, 7, 1, 0, 4, 0.00,15.00,Saturday
7,14.624999999999998
8,12.250000000000002
9,13.23725447019623
10,0.6499999999999999
11,10.0
12,0.0
13,0.0
14,43.16970270614778
15,-15.651141198553292
16,19.66972107683759
17,19.68513729664592
18,-0.25550511051891023
19,-0.2866399126613599
20,-0.02582591450319368
21,0.02763639641418265
22,-0.01844112561365014
23,0.012216371219513718
24,0.00044645539781108475
25,0.0002160524613949831
26,0.01239160284045727
27,0.005013127748061267
28,0.004605688109955034
29,0.18299637403279967
30,0.1825871537326365
31,0.0
32,25.49937682918337
33,78.18596798723759
34,45.876193070271576
35,0.0
36,44.97927344096051
37,27.721963606329872
38,27.364184109058634
39,11.763099355647103
40,167.44578577272904
41,4.218584262714241
42,167.76569529608236
2,1, 7, 1, 0, 4,15.00,30.00,Saturday
7,14.55
8,12.2
9,13.165396076027074
10,0.6
11,10.0
12,0.0
13,0.0
14,46.0035833106129
15,-13.561462117227094
16,19.45588675577105
17,19.45876418755268
18,-0.22465529420474512
19,-0.3260877161618835
20,-0.022012796364629616
21,0.02355596609918121
22,-0.015718349211511426
23,0.013763577221379119
24,0.0004764280349200473
25,0.0028738640563097093
26,0.007733054722215219
27,0.0035141103397439005
28,0.011947586874101081
29,0.20360568401369167
30,0.21204089045218388
31,0.0
32,0.0
33,43.411419945632716
34,421.592052074441
35,0.0
36,400.0763324973809
37,61.56643005967465
38,4.761153168313426
39,7.506564858518603
40,194.7262534692012
41,10.911295416990908
42,185.90190511172983
2,1, 7, 1, 0, 4,30.00,45.00,Saturday
7,14.475000000000001
8,12.149999999999999
9,13.093537156350267
10,0.55
11,10.0
12,0.0
13,0.0
14,48.730710289967654
15,-11.371432542783248
16,19.260986028921632
17,19.330361852344232
18,-0.23860286316594947
19,-0.274313926002434
20,-0.018502981370400514
21,0.0198001014807584
22,-0.013212147962326325
23,0.01082943187515135
24,0.0018888984211093921
25,0.0022729351529988213
26,0.008948473867149571
27,0.006759572603711215
28,0.009026088753290508
29,0.25264996416785057
30,0.25492058946096735
31,0.0
32,105.05559215839784
33,58.639615660657064
34,209.32055901510958
35,0.0
36,199.16384900165542
37,48.25891339052379
38,113.24295842484288
39,9.91214262911921
40,233.61555578265293
41,8.252084515435364
42,231.28085298313104
2,1, 7, 1, 0, 4,45.00,60.00,Saturday
7,14.4
8,12.1
9,13.02167523092577
10,0.5
11,10.0
12,0.0
13,0.0
14,51.357110444011354
15,-9.089666089235312
16,19.15784200025719
17,19.353657970227694
18,-0.2495722227628566
19,-0.25893321870851127
20,-0.015296774232836112
21,0.016369128632584752
22,-0.010922739447483797
23,0.008281430866974457
24,0.001353537178733755
25,0.0007300428406146997
26,0.00964021726133995
27,0.005476692637480739
28,0.0034944375956790204
29,0.11920300712006954
30,0.1172207604404306
31,0.0
32,26.66598015218739
33,63.483889545348156
34,7.1861683254501765
35,0.0
36,7.079111412953971
37,20.888217956616494
38,27.98917937345223
39,10.063479948345005
40,107.37383003909402
41,3.2011147374460895
42,109.23952847688793
2,1, 7, 1, 0, 5, 0.00,15.00,Saturday
7,14.3
8,12.075
9,12.976093271850473
10,0.425
11,10.0
12,0.0
13,0.0
14,53.88945433841395
15,-6.7242091687277785
16,19.13683115559592
17,19.28685746819282
18,-0.2528159206825203
19,-0.2596144193505681
20,-0.011055871115534879
21,0.011830924198841028
22,-0.007894501005363914
23,0.007106910534963725
24,0.0020811444322339136
25,0.0015445836396075123
26,0.008009486991448118
27,0.005187746960488383
28,0.003748616077736029
29,0.1180604050353275
30,0.11662128135668035
31,0.0
32,21.273556562728732
33,59.22505292584156
34,7.3558289388733025
35,0.0
36,7.259067786304821
37,22.600382056601433
38,22.38880193974537
39,9.237181227252492
40,106.85004573669272
41,3.4342128446190223
42,108.20304465665697
2,1, 7, 1, 0, 5,15.00,30.00,Saturday
7,14.2
8,12.05
9,12.930109074898892
10,0.35
11,10.0
12,0.0
13,0.0
14,56.33486119493952
15,-4.2825397514018295
16,19.123882647984914
17,19.089521195047965
18,-0.24804211136476195
19,-0.2652015436428468
20,-0.007500785457175197
21,0.00802661529320077
22,-0.0053559740081886645
23,0.007135450238861671
24,0.0027866368016415998
25,0.0031683033653766347
26,0.006418330559378974
27,0.005691445752483997
28,0.006790979676181093
29,0.2358721003695562
30,0.2369702479023619
31,0.0
32,84.89362172689317
33,52.64322025328435
34,127.75086150549495
35,0.0
36,121.44892253356754
37,37.359293972567045
38,89.69682599319005
39,8.426780274018899
40,217.14609116978056
41,6.207476431893824
42,216.04627213056855
2,1, 7, 1, 0, 5,30.00,45.00,Saturday
7,14.1
8,12.025
9,12.883727940306015
10,0.275
11,10.0
12,0.0
13,0.0
14,58.70075161730454
15,-1.7715823507148025
16,18.934369405270797
17,18.998665146121837
18,-0.25557418704227086
19,-0.24455414701611794
20,-0.004632248789164608
21,0.004956984729839466
22,-0.0033076808096805105
23,0.006180028435340437
24,0.004631084377348344
25,0.003950971762269037
26,0.006792360620110855
27,0.01017728097525028
28,0.008862859328312397
29,0.33334387586621805
30,0.3320267533269294
31,0.0
32,267.28487163125783
33,59.4352589457189
34,234.28373038890692
35,0.0
36,221.60052893075448
37,46.570971974161786
38,283.4507488042081
39,10.433766651760614
40,304.10553671021887
41,8.104440166160026
42,305.427497832805
2,1, 7, 1, 0, 5,45.00,60.00,Saturday
7,14.0
8,12.0
9,12.836940910203902
10,0.2
11,10.0
12,16.5
13,181.5
14,60.99474416458865
15,0.802265369589559
16,18.843564695819573
17,18.892705295217706
18,-0.24848732516668787
19,-0.25639879530449794
20,-0.002450995970558465
21,0.0026228188838595293
22,-0.0017501461396857633
23,0.005207316489280768
24,0.003441910691162088
25,0.0038944490138608278
26,0.004714489312281457
27,0.0038625941709711856
28,0.004807960811507747
29,0.08081676051479653
30,0.08176211138028075
31,0.0
32,4.683036393676379
33,48.22477066469145
34,0.0
35,0.0
36,0.0
37,28.710273049558797
38,4.63475944035081
39,7.469605702768707
40,74.90275815110829
41,4.403770316691744
42,74.04809558682422
2,1, 7, 1, 0, 6, 0.00,15.00,Saturday
7,14.15
8,12.1
9,12.956746495525758
10,0.15000000000000002
11,10.0
12,24.75
13,272.25
14,63.22459122547986
15,3.4330980332371763
16,18.796423907662195
17,18.841733946308892
18,-0.2348484009682569
19,-0.24470057426431557
20,-0.0013778294462981479
21,0.0014744198415247043
22,-0.0009838461244122867
23,0.004992775464144917
24,0.0034253075391565916
25,0.004223572787681725
26,0.00414941585758866
27,0.0034349918466237608
28,0.005076618500615599
29,0.0885603356076276
30,0.09020194345651583
31,0.0
32,5.004941556236084
33,42.929007028775715
34,1.5724108198972702
35,0.0
36,1.5374322053620584
37,29.034233111436812
38,4.944525650781736
39,6.931149021107933
40,82.5469813683467
41,4.645630923937431
42,81.05325380434329
2,1, 7, 1, 0, 6,15.00,30.00,Saturday
7,14.3
8,12.2
9,13.076297411430398
10,0.1
11,10.0
12,33.0
13,363.0
14,65.39814989300928
15,6.115462813854696
16,18.648297963292123
17,18.69474798347231
18,-0.22418130831176747
19,-0.2167420157963848
20,-0.0006119884458457048
21,0.0006548908573285928
22,-0.0004369934626147528
23,0.004809277009871642
24,0.004841939715599137
25,0.00448510642524198
26,0.00515431805361695
27,0.008617239270329743
28,0.007919302333212423
29,0.29223176422033303
30,0.29153477963009755
31,0.0
32,179.23585908375125
33,47.76457278431935
34,159.7071891777155
35,0.0
36,150.95072891889254
37,38.001584085042126
38,189.7391208306362
39,9.119773319964791
40,266.49835544228085
41,7.23257393771065
42,267.2015290363568
2,1, 7, 1, 0, 6,30.00,45.00,Saturday
7,14.45
8,12.3
9,13.195590692992605
10,0.05
11,10.0
12,43.5
13,418.0
14,67.52338432575586
15,8.844316509901184
16,18.643186422488125
17,18.688934250286938
18,-0.20850986763008145
19,-0.2140241606254397
20,-0.00015290210069041508
21,0.00016362104299226375
22,-0.00010918052272937859
23,0.004279610552965489
24,0.0036159719705216027
25,0.004189512248833325
26,0.003702202962802919
27,0.0034051340873575984
28,0.004556082647768729
29,0.06773648441597298
30,0.06888741856304056
31,0.0
32,3.839872643806953
33,37.400248040118775
34,0.0
35,0.0
36,0.0
37,23.538330169666047
38,3.7757341032077814
39,6.687155470590972
40,62.943875167162766
41,4.163878078164919
42,61.90201088780166
2,1, 7, 1, 0, 6,45.00,60.00,Saturday
7,14.6
8,12.4
9,13.314626352431446
10,0.0
11,10.0
12,54.0
13,473.0
14,69.60839723048406
15,11.614980733351857
16,18.61638270950543
17,18.699268822001645
18,-0.19928309121263849
19,-0.2044793171631067
20,0.0
21,0.0
22,0.0
23,0.0041482258544171995
24,0.003572876757882091
25,0.0041482258544171995
26,0.003572876757882091
27,0.003318451516242023
28,0.0044691503334594596
29,0.06578352187798438
30,0.06693420655579131
31,0.0
32,6.757301084665377
33,34.96154604382354
34,0.0
35,0.0
36,0.0
37,22.317157178957256
38,6.641134430550017
39,6.521018051875449
40,61.072457457827255
41,4.079584670058229
42,60.039678931281934
2,1, 7, 1, 0, 7, 0.00,15.00,Saturday
7,15.25
8,12.8
9,13.784282059478448
10,0.125
11,10.0
12,64.5
13,528.0
14,71.66148951861048
15,14.423095922788672
16,18.702379209025793
17,18.67350433520479
18,-0.1593823091758206
19,-0.16909177942360992
20,-0.0009525451053593411
21,0.0010193216635501808
22,-0.0006801696775704485
23,0.004333479950506409
24,0.002662798592543168
25,0.003675723080677254
26,0.0032596569225019243
27,0.0025195085179111816
28,0.004606257715824963
29,0.08994846143805954
30,0.092035189588726
31,0.0
32,0.0
33,24.852571144723033
34,3.228437101767756
35,0.0
36,3.1552382458408044
37,19.16770605625639
38,0.0
39,5.394349121988499
40,83.78077870452427
41,4.19510327173113
42,81.87350842674304
2,1, 7, 1, 0, 7,15.00,30.00,Saturday
7,15.899999999999999
8,13.2
9,14.246904556081581
10,0.25
11,10.0
12,75.0
13,583.0
14,73.69124885546096
15,17.264574374217602
16,18.668839712955982
17,18.87411967932008
18,-0.12908168814595433
19,-0.12558215808801057
20,-0.0038002237838216197
21,0.004066632023400832
22,-0.00271356912254817
23,0.003945279622128567
24,0.0023060523004846973
25,0.0013263359416586004
26,0.005297580120706092
27,0.004311606201515699
28,0.001979589261368246
29,0.05602593854240356
30,0.053693940994219126
31,0.0
32,13.35624989581482
33,25.533816975591996
34,0.0
35,0.0
36,0.0
37,7.140528252146434
38,13.936329164224865
39,6.909524862327357
40,48.74576361341253
41,1.8001631241468494
42,50.89927582184395
2,1, 7, 1, 0, 7,30.00,45.00,Saturday
7,16.549999999999997
8,13.6
9,14.70236737395719
10,0.375
11,10.0
12,82.25
13,617.5
14,75.70666978720917
15,20.135552007239788
16,18.885536918912745
17,18.73460675110176
18,-0.08646237966926497
19,-0.1085127719554892
20,-0.008528197421423942
21,0.009126052229737563
22,-0.006089602747156851
23,0.0084482668570847
24,0.0
25,0.0004452941026308563
26,0.005704539296331189
27,0.001287189189982899
28,0.00447602378048456
29,0.13621919144285805
30,0.13940941407018806
31,0.0
32,0.0
33,16.12323326718825
34,25.431183297231374
35,0.0
36,24.849220185660172
37,11.833425501961353
38,0.0
39,5.176296732798658
40,126.33026182768397
41,4.059413529408383
42,123.38412110074155
2,1, 7, 1, 0, 7,45.00,60.00,Saturday
7,17.2
8,14.0
9,15.15054910423831
10,0.5
11,10.0
12,89.5
13,652.0
14,77.71731051703462
15,23.032338110765867
16,18.721521013526445
17,18.98068628261031
18,-0.07202256969757481
19,-0.05594097401154148
20,-0.015121762959391511
21,0.016181848490800503
22,-0.010797771757491728
23,0.0052742781426702605
24,0.00017477695233242746
25,0.0
26,0.013231657515326279
27,0.008118448554593564
28,0.0
29,0.12252571568444301
30,0.11440227178953766
31,0.0
32,35.74489319218632
33,24.631239249785008
34,0.0
35,0.0
36,0.0
37,0.0
38,38.283056375783744
39,12.131257934700683
40,103.35001375605134
41,0.0
42,110.78372763005756
2,1, 7, 1, 0, 8, 0.00,15.00,Saturday
7,17.45
8,14.05
9,15.301384248743707
10,0.975
11,10.0
12,96.75
13,686.5
14,79.73349441361124
15,25.95136179231785
16,18.84856710495144
17,18.83323345917175
18,-0.06135174544056845
19,-0.08596903166169954
20,-0.05744497209813307
21,0.06147205438588998
22,-0.04101887451858861
23,0.01611262131056491
24,0.0
25,0.0
26,0.02320786091621296
27,0.007094871026655562
28,0.0
29,0.14878939574078817
30,0.14169422980188467
31,0.0
32,0.0
33,39.16033935289031
34,2.6171883430152025
35,0.0
36,2.74824086091251
37,0.0
38,0.0
39,20.991668138365384
40,127.93007833452067
41,0.0
42,134.35858658287077
2,1, 7, 1, 0, 8,15.00,30.00,Saturday
7,17.7
8,14.1
9,15.450715704941567
10,1.45
11,10.0
12,104.0
13,721.0
14,81.76656828419087
15,28.88911322456372
16,18.58505152729896
17,19.019804969979894
18,-0.09494861169152842
19,-0.09150115498832195
20,-0.12692875709505694
21,0.13582688221959008
22,-0.09063412462257533
23,0.0212997973419431
24,0.0
25,0.0
26,0.036236288216081346
27,0.014936490522509472
28,0.0
29,0.06352153838939556
30,0.04858551184563239
31,0.0
32,25.428574326756312
33,38.66104002690475
34,0.0
35,0.0
36,0.0
37,0.0
38,33.24575781802439
39,32.71604180333991
40,43.789337981787035
41,0.0
42,57.34432353308677
2,1, 7, 1, 0, 8,30.00,45.00,Saturday
7,17.95
8,14.149999999999999
9,15.598530123440932
10,1.9249999999999998
11,10.0
12,108.25
13,743.0
14,83.82923479712734
15,31.84207695476928
16,18.71657879923054
17,18.807482737580337
18,-0.12113059789174938
19,-0.13228768142806574
20,-0.2234948934722163
21,0.23916262371967048
22,-0.15958766548308775
23,0.028863864464816737
24,0.0
25,0.0
26,0.04775955984088252
27,0.018895461672773596
28,0.0
29,0.14284224296633233
30,0.12394863257857833
31,0.0
32,17.066321812017524
33,44.03381068440513
34,13.22616750674346
35,0.0
36,14.697636503583606
37,0.0
38,20.929563538869843
39,43.12716197964243
40,111.78194813707577
41,0.0
42,128.8751171780223
2,1, 7, 1, 0, 8,45.00,60.00,Saturday
7,18.2
8,14.2
9,15.744820187257806
10,2.4
11,10.0
12,112.5
13,765.0
14,85.93598388560372
15,34.80665339089467
16,18.777518019863248
17,18.705733635154704
18,-0.16076573030712163
19,-0.18454862622886986
20,-0.3470656578911121
21,0.3713961068848791
22,-0.24782399835493354
23,0.03616017877269257
24,0.0
25,0.0
26,0.059459196364776444
27,0.023298975506904632
28,0.0
29,0.15357714049368817
30,0.13028106163747394
31,0.0
32,0.0
33,41.325017673764094
34,11.24396706553973
35,0.0
36,13.254545887382434
37,0.0
38,0.0
39,53.62580903919346
40,117.33121277651547
41,0.0
42,138.34511856508897
2,1, 7, 1, 0, 9, 0.00,15.00,Saturday
7,18.45
8,14.45
9,15.977886325256303
10,2.65
11,10.0
12,116.75
13,787.0
14,88.10365853180583
15,37.77906291129234
16,18.515254532484814
17,18.916547183320773
18,-0.017740071586824294
19,-0.011294768027050045
20,-0.4226632292325591
21,0.45229331768000214
22,-0.30180482869579545
23,0.43251243621167446
24,0.0
25,0.0
26,0.47656033271469705
27,0.04404789602885936
28,0.0
29,0.10173771789671321
30,0.05769366688342885
31,0.0
32,27.81981774003837
33,37.39395458443517
34,0.0
35,0.0
36,0.0
37,0.0
38,49.05780689746635
39,429.00481327749867
40,51.871846882587555
41,0.0
42,91.6064332251828
2,1, 7, 1, 0, 9,15.00,30.00,Saturday
7,18.7
8,14.7
9,16.210966273939405
10,2.9
11,10.0
12,121.0
13,809.0
14,90.35220554267657
15,40.755224566518166
16,18.846408793489847
17,18.827330503154947
18,-0.2246375116423725
19,-0.22478454096863515
20,-0.5056045664115341
21,0.5410491165546975
22,-0.36102951238676184
23,0.04293348458018756
24,0.0
25,0.0
26,0.07231703238853898
27,0.02938354364259469
28,0.0
29,0.12430113654729913
30,0.09492193290947418
31,0.0
32,9.47743656205793
33,12.71237070588381
34,11.293416184960503
35,0.0
36,14.790948321122272
37,0.0
38,12.409073032123935
39,65.16271360073506
40,85.43980265119174
41,0.0
42,111.9216343967203
2,1, 7, 1, 0, 9,30.00,45.00,Saturday
7,18.95
8,14.95
9,16.44406020289414
10,3.15
11,10.0
12,122.75
13,824.0
14,92.70568402983633
15,43.730597579592015
16,19.052192882167933
17,18.966225304747507
18,-0.25738849131435715
19,-0.2639822213130238
20,-0.5958638866996753
21,0.6376359133261839
22,-0.4254796391395031
23,0.046766863846808684
24,0.0
25,0.0
26,0.07848051140778918
27,0.031713646676068026
28,0.0
29,0.0896770488274387
30,0.05797005463471033
31,0.0
32,0.0
33,9.628212187680035
34,5.979357740314459
35,0.0
36,9.249795595566678
37,0.0
38,0.0
39,70.66116190597002
40,52.136925579543266
41,0.0
42,80.6666931530322
2,1, 7, 1, 0, 9,45.00,60.00,Saturday
7,19.2
8,15.2
9,16.67716745923943
10,3.4
11,10.0
12,124.5
13,839.0
14,95.19363652948925
15,46.699968042839956
16,19.140171047653673
17,19.16069234423681
18,-0.3061275226575509
19,-0.29223072401442934
20,-0.6934153152418823
21,0.7420260192265521
22,-0.4951367328821233
23,0.05007314945811348
24,0.0
25,0.0
26,0.08495123466233274
27,0.03487808518330654
28,0.0
29,0.13107997586940828
30,0.09620222167819696
31,6.096636262052952
32,2.366535164763772
33,0.0
34,0.0
35,0.0
36,0.0
37,0.0
38,3.224513601452986
39,76.44486750108447
40,86.4865032548016
41,0.0
42,117.87218552749007
2,1, 7, 1, 0,10, 0.00,15.00,Saturday
7,19.549999999999997
8,15.399999999999999
9,16.91238235562167
10,3.275
11,12.5
12,126.25
13,854.0
14,97.8529744453247
15,49.65715411269911
16,19.434799749992084
17,19.28788070391485
18,-0.28049191924956324
19,-0.27405887520272587
20,-0.6668538025207347
21,0.6736754286284485
22,-0.46137290101709394
23,0.04923833301092201
24,0.0
25,0.0
26,0.08167997669557986
27,0.03244164368461609
28,0.0
29,0.09463494685160714
30,0.062193573621787235
31,11.273854592726305
32,0.0
33,0.0
34,10.941074026493846
35,0.0
36,16.64815026216836
37,0.0
38,0.0
39,73.48687409647681
40,55.895751173199464
41,0.0
42,85.03903953611858
2,1, 7, 1, 0,10,15.00,30.00,Saturday
7,19.9
8,15.6
9,17.145530716887606
10,3.15
11,15.0
12,128.0
13,869.0
14,100.7305959826039
15,52.59458859093152
16,19.552144035279685
17,19.505547423426293
18,-0.2712254675333298
19,-0.2454664608378889
20,-0.6385877858670537
21,0.6095843769467911
22,-0.42864659218779744
23,0.04779650089978994
24,0.0
25,0.0
26,0.07872219690112822
27,0.03092565208224504
28,0.0
29,0.1687079097802797
30,0.13778846377258477
31,32.771391668345814
32,0.0
33,0.0
34,7.678405838372586
35,0.0
36,9.4014242119323
37,0.0
38,0.0
39,70.77120596180511
40,123.74594747513059
41,0.0
42,151.53813458548308
2,1, 7, 1, 0,10,30.00,45.00,Saturday
7,20.25
8,15.8
9,17.376572301686394
10,3.025
11,17.5
12,128.0
13,878.75
14,103.88704464876542
15,55.50271478458659
16,19.88950891181004
17,19.799140731411
18,-0.2547475317583946
19,-0.23077452893708428
20,-0.6088371981617134
21,0.5496145523783701
22,-0.3969763665835128
23,0.04669919386068024
24,0.0
25,0.0
26,0.07551581378358628
27,0.02881661927030134
28,0.0
29,0.15161549024697296
30,0.12279911373628774
31,32.54455223210109