Program Version,EnergyPlus, Version 22.2.0-c249759bad, YMD=2025.11.12 19:08
1,5,Environment Title[],Latitude[deg],Longitude[deg],Time Zone[],Elevation[m]
2,8,Day of Simulation[],Month[],Day of Month[],DST Indicator[1=yes 0=no],Hour[],StartMinute[],EndMinute[],DayType
3,5,Cumulative Day of Simulation[],Month[],Day of Month[],DST Indicator[1=yes 0=no],DayType  ! When Daily Report Variables Requested
4,2,Cumulative Days of Simulation[],Month[]  ! When Monthly Report Variables Requested
5,1,Cumulative Days of Simulation[] ! When Run Period Report Variables Requested
6,1,Calendar Year of Simulation[] ! When Annual Report Variables Requested
7,1,Environment,Site Outdoor Air Drybulb Temperature [C] !TimeStep
8,1,Environment,Site Outdoor Air Barometric Pressure [Pa] !TimeStep
9,1,Environment,Site Wind Speed [m/s] !TimeStep
10,1,Environment,Site Wind Direction [deg] !TimeStep
11,1,BLOCK `ROOM1` STOREY 0,Zone Mean Air Temperature [C] !TimeStep
12,1,BLOCK `ROOM2` STOREY 0,Zone Mean Air Temperature [C] !TimeStep
13,1,BLOCK `ROOM1` STOREY 0,AFN Node Total Pressure [Pa] !TimeStep
14,1,BLOCK `ROOM2` STOREY 0,AFN Node Total Pressure [Pa] !TimeStep
15,1,AFN_EXTERNAL_NODE_NORTH_ROOM1,AFN Node Total Pressure [Pa] !TimeStep
16,1,AFN_EXTERNAL_NODE_NORTH_ROOM1,AFN Node Wind Pressure [Pa] !TimeStep
17,1,AFN_EXTERNAL_NODE_SOUTH_ROOM1,AFN Node Total Pressure [Pa] !TimeStep
18,1,AFN_EXTERNAL_NODE_SOUTH_ROOM1,AFN Node Wind Pressure [Pa] !TimeStep
19,1,AFN_EXTERNAL_NODE_NORTH_ROOM2,AFN Node Total Pressure [Pa] !TimeStep
20,1,AFN_EXTERNAL_NODE_NORTH_ROOM2,AFN Node Wind Pressure [Pa] !TimeStep
21,1,AFN_EXTERNAL_NODE_SOUTH_ROOM2,AFN Node Total Pressure [Pa] !TimeStep
22,1,AFN_EXTERNAL_NODE_SOUTH_ROOM2,AFN Node Wind Pressure [Pa] !TimeStep
23,1,DOOR__BLOCK `ROOM1` STOREY 0 WALL 0001,AFN Linkage Node 1 to Node 2 Volume Flow Rate [m3/s] !TimeStep
24,1,DOOR__BLOCK `ROOM1` STOREY 0 WALL 0001,AFN Linkage Node 2 to Node 1 Volume Flow Rate [m3/s] !TimeStep
25,1,DOOR__BLOCK `ROOM1` STOREY 0 WALL 0003,AFN Linkage Node 1 to Node 2 Volume Flow Rate [m3/s] !TimeStep
26,1,DOOR__BLOCK `ROOM1` STOREY 0 WALL 0003,AFN Linkage Node 2 to Node 1 Volume Flow Rate [m3/s] !TimeStep
27,1,DOOR__BLOCK `ROOM2` STOREY 0 WALL 0001,AFN Linkage Node 1 to Node 2 Volume Flow Rate [m3/s] !TimeStep
28,1,DOOR__BLOCK `ROOM2` STOREY 0 WALL 0001,AFN Linkage Node 2 to Node 1 Volume Flow Rate [m3/s] !TimeStep
29,1,DOOR__BLOCK `ROOM2` STOREY 0 WALL 0003,AFN Linkage Node 1 to Node 2 Volume Flow Rate [m3/s] !TimeStep
30,1,DOOR__BLOCK `ROOM2` STOREY 0 WALL 0003,AFN Linkage Node 2 to Node 1 Volume Flow Rate [m3/s] !TimeStep
31,1,DOOR__BLOCK `ROOM1` STOREY 0 WALL 0001,AFN Surface Venting Availability Status [] !TimeStep
32,1,DOOR__BLOCK `ROOM1` STOREY 0 WALL 0003,AFN Surface Venting Availability Status [] !TimeStep
33,1,DOOR__BLOCK `ROOM2` STOREY 0 WALL 0001,AFN Surface Venting Availability Status [] !TimeStep
34,1,DOOR__BLOCK `ROOM2` STOREY 0 WALL 0003,AFN Surface Venting Availability Status [] !TimeStep
35,1,BLOCK `ROOM1` STOREY 0,AFN Zone Ventilation Sensible Heat Gain Rate [W] !TimeStep
36,1,BLOCK `ROOM1` STOREY 0,AFN Zone Mixing Sensible Heat Gain Rate [W] !TimeStep
37,1,BLOCK `ROOM1` STOREY 0,AFN Zone Ventilation Sensible Heat Loss Rate [W] !TimeStep
38,1,BLOCK `ROOM1` STOREY 0,AFN Zone Mixing Sensible Heat Loss Rate [W] !TimeStep
39,1,BLOCK `ROOM2` STOREY 0,AFN Zone Ventilation Sensible Heat Gain Rate [W] !TimeStep
40,1,BLOCK `ROOM2` STOREY 0,AFN Zone Mixing Sensible Heat Gain Rate [W] !TimeStep
41,1,BLOCK `ROOM2` STOREY 0,AFN Zone Ventilation Sensible Heat Loss Rate [W] !TimeStep
42,1,BLOCK `ROOM2` STOREY 0,AFN Zone Mixing Sensible Heat Loss Rate [W] !TimeStep
43,1,BLOCK `ROOM1` STOREY 0,AFN Zone Ventilation Volume [m3] !TimeStep
44,1,BLOCK `ROOM1` STOREY 0,AFN Zone Ventilation Air Change Rate [ach] !TimeStep
45,1,BLOCK `ROOM1` STOREY 0,AFN Zone Mixing Volume [m3] !TimeStep
46,1,BLOCK `ROOM2` STOREY 0,AFN Zone Ventilation Volume [m3] !TimeStep
47,1,BLOCK `ROOM2` STOREY 0,AFN Zone Ventilation Air Change Rate [ach] !TimeStep
48,1,BLOCK `ROOM2` STOREY 0,AFN Zone Mixing Volume [m3] !TimeStep
End of Data Dictionary
1,JULY_1,  37.62,-122.40,  -8.00,   2.00
2,1, 7, 1, 0, 1, 0.00,15.00,Saturday
7,13.150000000000002
8,101450.0
9,6.45
10,285.0
11,14.551924605938956
12,14.47788267604372
13,-2.0932530803271994
14,-2.0903248226625473
15,-1.2975015304897584
16,-1.2975015304897584
17,-2.7946186810548634
18,-2.7946186810548634
19,-1.2975015304897584
20,-1.2975015304897584
21,-2.794618681054864
22,-2.794618681054864
23,0.0
24,0.0006202413321297544
25,0.0006204010413468457
26,0.0
27,0.0
28,0.0006202499446032299
29,0.0006204037839519344
30,0.0
31,0.0
32,0.0
33,0.0
34,0.0
35,0.0
36,0.0
37,1.0805453160151002
38,0.0
39,0.0
40,0.0
41,1.0234915148158252
42,0.0
43,0.5613258964914223
44,0.7484345286552297
45,0.0
46,0.5611892385990961
47,0.748252318132128
48,0.0
2,1, 7, 1, 0, 1,15.00,30.00,Saturday
7,13.5
8,101500.0
9,5.9
10,280.0
11,14.72722479514177
12,14.664892382780907
13,-1.964319012177965
14,-1.9612030312854265
15,-1.5016886976577148
16,-1.5016886976577148
17,-2.335960196356444
18,-2.335960196356444
19,-1.5016886976577148
20,-1.5016886976577148
21,-2.335960196356445
22,-2.335960196356445
23,0.0
24,0.0004245755816950265
25,0.00042457558151554693
26,0.0
27,0.0
28,0.0004245797356757448
29,0.00042457973584388573
30,0.0
31,0.0
32,0.0
33,0.0
34,0.0
35,0.0
36,0.0
37,0.6470481324155154
38,0.0
39,0.0
40,0.0
41,0.6141895820453669
42,0.0
43,0.3839852122438653
44,0.5119802829918203
45,0.0
46,0.383905826658561
47,0.511874435544748
48,0.0
2,1, 7, 1, 0, 1,30.00,45.00,Saturday
7,13.849999999999998
8,101550.0
9,5.35
10,275.0
11,14.839492135139182
12,14.777703162224672
13,-1.7859534265186556
14,-1.7830194237738062
15,-1.5761396178668703
16,-1.5761396178668703
17,-1.9187786652292327
18,-1.9187786652292327
19,-1.5761396178668703
20,-1.5761396178668703
21,-1.9187786652292336
22,-1.9187786652292336
23,0.0
24,0.0002383161479724036
25,0.00023832800860618063
26,0.0
27,0.0
28,0.00023831832516379303
29,0.00023833025130762375
30,0.0
31,0.0
32,0.0
33,0.0
34,0.0
35,0.0
36,0.0
37,0.29263537964133757
38,0.0
39,0.0
40,0.0
41,0.2743642294740836
42,0.0
43,0.2152466433928031
44,0.2869955245237375
45,0.0
46,0.21520242820586366
47,0.28693657094115155
48,0.0
2,1, 7, 1, 0, 1,45.00,60.00,Saturday
7,14.2
8,101600.0
9,4.8
10,270.0
11,15.01021359922526
12,14.94541116852251
13,-1.558476593549275
14,-1.5555997745571828
15,-1.5429549534374045
16,-1.5429549534374045
17,-1.5429549534374039
18,-1.5429549534374039
19,-1.5429549534374045
20,-1.5429549534374045
21,-1.5429549534374045
22,-1.5429549534374045
23,1.0285717233699818e-14
24,0.0
25,0.0
26,2.059926377758591e-14
27,0.0
28,0.0
29,0.0
30,0.0
31,0.0
32,0.0
33,0.0
34,0.0
35,0.0
36,0.0
37,2.0697419372347662e-11
38,0.0
39,0.0
40,0.0
41,0.0
42,0.0
43,1.8594338697617766e-11
44,2.4792451596823687e-11
45,0.0
46,0.0
47,0.0
48,0.0
2,1, 7, 1, 0, 2, 0.00,15.00,Saturday
7,13.95
8,101600.0
9,4.75
10,272.5
11,15.058522776062134
12,14.980173370575223
13,-1.4825807311395527
14,-1.479561333677077
15,-1.3774768121489434
16,-1.3774768121489434
17,-1.5125235584380545
18,-1.5125235584380545
19,-1.3774768121489434
20,-1.3774768121489434
21,-1.5125235584380552
22,-1.5125235584380552
23,0.0
24,0.00013011557492962372
25,0.00013011607114615987
26,0.0
27,0.0
28,0.0001301168197594546
29,0.00013011731818451778
30,0.0
31,0.0
32,0.0
33,0.0
34,0.0
35,0.0
36,0.0
37,0.1790222660694417
38,0.0
39,0.0
40,0.0
41,0.16637072294001118
42,0.0
43,0.11757031858630726
44,0.156760424781743
45,0.0
46,0.11753948211670329
47,0.15671930948893772
48,0.0
2,1, 7, 1, 0, 2,15.00,30.00,Saturday
7,13.7
8,101600.0
9,4.699999999999999
10,275.0
11,15.028596457179427
12,14.946859901930067
13,-1.404039969835251
14,-1.400383676351511
15,-1.2176551189753566
16,-1.2176551189753566
17,-1.4823627535352166
18,-1.4823627535352166
19,-1.2176551189753566
20,-1.2176551189753566
21,-1.4823627535352166
22,-1.4823627535352166
23,0.0
24,0.00020131113079195986
25,0.0002013205337670394
26,0.0
27,0.0
28,0.00020131343159995432
29,0.00020132291933905468
30,0.0
31,0.0
32,0.0
33,0.0
34,0.0
35,0.0
36,0.0
37,0.33224818495122155
38,0.0
39,0.0
40,0.0
41,0.31181151490389747
42,0.0
43,0.1820360818306891
44,0.24271477577425213
45,0.0
46,0.18198653152748212
47,0.24264870870330948
48,0.0
2,1, 7, 1, 0, 2,30.00,45.00,Saturday
7,13.45
8,101600.0
9,4.6499999999999995
10,277.5
11,14.99813604545187
12,14.920814586213051
13,-1.3249645510375092
14,-1.3211423442137258
15,-1.063418130500371
16,-1.063418130500371
17,-1.452473544098067
18,-1.452473544098067
19,-1.063418130500371
20,-1.063418130500371
21,-1.4524735440980674
22,-1.4524735440980674
23,0.0
24,0.0002583226787444693
25,0.0002583161646752364
26,0.0
27,0.0
28,0.0002583255573543096
29,0.0002583195886833967
30,0.0
31,0.0
32,0.0
33,0.0
34,0.0
35,0.0
36,0.0
37,0.49721292944210227
38,0.0
39,0.0
40,0.0
41,0.4723849564328493
42,0.0
43,0.233761433626781
44,0.3116819115023747
45,0.0
46,0.2337013119611329
47,0.3116017492815105
48,0.0
2,1, 7, 1, 0, 2,45.00,60.00,Saturday
7,13.2
8,101600.0
9,4.6
10,280.0
11,14.978467763640486
12,14.905553752950324
13,-1.2488238366978361
14,-1.2451953044554052
15,-0.914693744298069
16,-0.914693744298069
17,-1.4228569355747733
18,-1.4228569355747733
19,-0.914693744298069
20,-0.914693744298069
21,-1.4228569355747738
22,-1.4228569355747738
23,0.0
24,0.0003069791523429106
25,0.00030699783832360285
26,0.0
27,0.0
28,0.00030697781632361125
29,0.0003070063078718301
30,0.0
31,0.0
32,0.0
33,0.0
34,0.0
35,0.0
36,0.0
37,0.6793523385231861
38,0.0
39,0.0
40,0.0
41,0.6514972672082958
42,0.0
43,0.2780076933019459
44,0.37067692440259453
45,0.0
46,0.27793613281832585
47,0.3705815104244345
48,0.0
2,1, 7, 1, 0, 3, 0.00,15.00,Saturday
7,12.924999999999999
8,101575.0
9,4.5249999999999995
10,280.0
11,14.962295593653453
12,14.890646086737592
13,-1.2267524609793352
14,-1.2233372286789952
15,-0.8858862936817159
16,-0.8858862936817159
17,-1.3780453457271127
18,-1.3780453457271127
19,-0.8858862936817159
20,-0.8858862936817159
21,-1.3780453457271131
22,-1.3780453457271131
23,0.0
24,0.0003004147147424805
25,0.00030041523831156585
26,0.0
27,0.0
28,0.0003004175103445273
29,0.00030041904170170775
30,0.0
31,0.0
32,0.0
33,0.0
34,0.0
35,0.0
36,0.0
37,0.7621059879731095
38,0.0
39,0.0
40,0.0
41,0.735310378127207
42,0.0
43,0.2723016108319075
44,0.36306881444254335
45,0.0
46,0.2722364285563106
47,0.36298190474174746
48,0.0
2,1, 7, 1, 0, 3,15.00,30.00,Saturday
7,12.649999999999999
8,101550.0
9,4.449999999999999
10,280.0
11,14.941908365002298
12,14.870375602355658
13,-1.2052092085201196
14,-1.2018547503726158
15,-0.8575139685220894
16,-0.8575139685220894
17,-1.3339106177010271
18,-1.3339106177010271
19,-0.8575139685220894
20,-0.8575139685220894
21,-1.333910617701028
22,-1.333910617701028
23,0.0
24,0.0002938772668874972
25,0.0002938765162358924
26,0.0
27,0.0
28,0.0002938801828666974
29,0.0002938799740989318
30,0.0
31,0.0
32,0.0
33,0.0
34,0.0
35,0.0
36,0.0
37,0.8392740400127804
38,0.0
39,0.0
40,0.0
41,0.8130875217750914
42,0.0
43,0.2666068140644911
44,0.35547575208598814
45,0.0
46,0.2665432625684668
47,0.3553910167579557
48,0.0
2,1, 7, 1, 0, 3,30.00,45.00,Saturday
7,12.375
8,101525.0
9,4.375
10,280.0
11,14.916316769336566
12,14.844602980919978
13,-1.1838189842332418
14,-1.1804683934285212
15,-0.8295780710569012
16,-0.8295780710569012
17,-1.2904547771996233
18,-1.2904547771996233
19,-0.8295780710569012
20,-0.8295780710569012
21,-1.2904547771996238
22,-1.2904547771996238
23,0.0
24,0.0002873829357035878
25,0.00028736675766803454
26,0.0
27,0.0
28,0.0002873835726447462
29,0.00028737239030793277
30,0.0
31,0.0
32,0.0
33,0.0
34,0.0
35,0.0
36,0.0
37,0.9106704352889323
38,0.0
39,0.0
40,0.0
41,0.8849740549152644
42,0.0
43,0.26093725212182345
44,0.3479163361624313
45,0.0
46,0.26087287181071
47,0.3478304957476133
48,0.0
2,1, 7, 1, 0, 3,45.00,60.00,Saturday
7,12.1
8,101500.0
9,4.3
10,280.0
11,14.886196347931694
12,14.817358768380306
13,-1.1625632397387653
14,-1.1592004448444884
15,-0.8020799028099065
16,-0.8020799028099065
17,-1.2476798488154095
18,-1.2476798488154095
19,-0.8020799028099065
20,-0.8020799028099065
21,-1.24767984881541
22,-1.24767984881541
23,0.0
24,0.0002809425371380144
25,0.00028087591025714845
26,0.0
27,0.0
28,0.00028093923080155974
29,0.0002808854264948901
30,0.0
31,0.0
32,0.0
33,0.0
34,0.0
35,0.0
36,0.0
37,0.9767244886341574
38,0.0
39,0.0
40,0.0
41,0.9525816871958361
42,0.0
43,0.2553036104194782
44,0.3404048138926376
45,0.0
46,0.2552395928829677
47,0.3403194571772903
48,0.0
2,1, 7, 1, 0, 4, 0.00,15.00,Saturday
7,11.85
8,101500.0
9,4.25
10,282.5
11,14.844893331952944
12,14.779210607813399
13,-1.0976091344408168
14,-1.0943922415274494
15,-0.6753974618729282
16,-0.6753974618729282
17,-1.2200728343510958
18,-1.2200728343510958
19,-0.6753974618729282
20,-0.6753974618729282
21,-1.2200728343510963
22,-1.2200728343510963
23,0.0
24,0.00031966698878772365
25,0.0003198348309963625
26,0.0
27,0.0
28,0.000319676964167448
29,0.00031983154191125916
30,0.0
31,0.0
32,0.0
33,0.0
34,0.0
35,0.0
36,0.0
37,1.1956215574753117
38,0.0
39,0.0
40,0.0
41,1.1694361867922736
42,0.0
43,0.2907026161053121
44,0.3876034881404162
45,0.0
46,0.290645386216922
47,0.38752718162256267
48,0.0
2,1, 7, 1, 0, 4,15.00,30.00,Saturday
7,11.6
8,101500.0
9,4.199999999999999
10,285.0
11,14.795009961486459
12,14.730419804455444
13,-1.034911811979466
14,-1.031829094082299
15,-0.5537747761147058
16,-0.5537747761147058
17,-1.192745671631674
18,-1.192745671631674
19,-0.5537747761147058
20,-0.5537747761147058
21,-1.1927456716316742
22,-1.1927456716316742
23,0.0
24,0.0003543683676605124
25,0.0003543684914464664
26,0.0
27,0.0
28,0.0003543719606653587
29,0.00035437206868888877
30,0.0
31,0.0
32,0.0
33,0.0
34,0.0
35,0.0
36,0.0
37,1.4151872472467417
38,0.0
39,0.0
40,0.0
41,1.3865919534167905
42,0.0
43,0.32248250071475265
44,0.4299766676196702
45,0.0
46,0.32241343273920914
47,0.42988457698561217
48,0.0
2,1, 7, 1, 0, 4,30.00,45.00,Saturday
7,11.35
8,101500.0
9,4.1499999999999995
10,287.5
11,14.743617691515382
12,14.676880268038992
13,-0.9741448017072706
14,-0.971115553068625
15,-0.4371372621322759
16,-0.4371372621322759
17,-1.1656993656860686
18,-1.1656993656860686
19,-0.4371372621322759
20,-0.4371372621322759
21,-1.1656993656860692
22,-1.1656993656860692
23,0.0
24,0.00038551916415301325
25,0.0003855558302731315
26,0.0
27,0.0
28,0.0003855278702238762
29,0.0003855547770811651
30,0.0
31,0.0
32,0.0
33,0.0
34,0.0
35,0.0
36,0.0
37,1.6366966977962265
38,0.0
39,0.0
40,0.0
41,1.6045463598631344
42,0.0
43,0.3510720554737426
44,0.46809607396499014
45,0.0
46,0.3509985986025936
47,0.46799813147012476
48,0.0
2,1, 7, 1, 0, 4,45.00,60.00,Saturday
7,11.1
8,101500.0
9,4.1
10,290.0
11,14.693719543375538
12,14.626320299062495
13,-0.9157880186773957
14,-0.9126457679150298
15,-0.32540997761311785
16,-0.32540997761311785
17,-1.1389349216459117
18,-1.1389349216459117
19,-0.32540997761311785
20,-0.32540997761311785
21,-1.1389349216459124
22,-1.1389349216459124
23,0.0
24,0.00041378547508210615
25,0.0004137853364908268
26,0.0
27,0.0
28,0.00041378974016361136
29,0.0004137896440509821
30,0.0
31,0.0
32,0.0
33,0.0
34,0.0
35,0.0
36,0.0
37,1.86188024482474
38,0.0
39,0.0
40,0.0
41,1.8269800125153328
42,0.0
43,0.3770753472938092
44,0.502767129725079
45,0.0
46,0.37699093898693214
47,0.5026545853159096
48,0.0
2,1, 7, 1, 0, 5, 0.00,15.00,Saturday
7,11.274999999999999
8,101500.0
9,4.1
10,290.0
11,14.661488547348625
12,14.59578714491479
13,-0.9032549741834
14,-0.9000804741689266
15,-0.3252037463463598
16,-0.3252037463463598
17,-1.1382131122122585
18,-1.1382131122122585
19,-0.3252037463463598
20,-0.3252037463463598
21,-1.1382131122122592
22,-1.1382131122122592
23,0.0
24,0.00041386886486303846
25,0.00041386882677006063
26,0.0
27,0.0
28,0.00041387317242580913
29,0.0004138731444045035
30,0.0
31,0.0
32,0.0
33,0.0
34,0.0
35,0.0
36,0.0
37,1.753794057592615
38,0.0
39,0.0
40,0.0
41,1.719786526965021
42,0.0
43,0.37688233325614395
44,0.5025097776748586
45,0.0
46,0.376800218726879
47,0.5024002916358387
48,0.0
2,1, 7, 1, 0, 5,15.00,30.00,Saturday
7,11.45
8,101500.0
9,4.1
10,290.0
11,14.636082203255262
12,14.572778153828033
13,-0.89158734243668
14,-0.8884921227723283
15,-0.32499813040345477
16,-0.32499813040345477
17,-1.137493456412091
18,-1.137493456412091
19,-0.32499813040345477
20,-0.32499813040345477
21,-1.1374934564120915
22,-1.1374934564120915
23,0.0
24,0.0004139508893669126
25,0.0004139508756968618
26,0.0
27,0.0
28,0.00041395507723351405
29,0.000413955066770315
30,0.0
31,0.0
32,0.0
33,0.0
34,0.0
35,0.0
36,0.0
37,1.6493241670740233
38,0.0
39,0.0
40,0.0
41,1.6165702123660426
42,0.0
43,0.37669669177914494
44,0.5022622557055266
45,0.0
46,0.37661763792662245
47,0.50215685056883
48,0.0
2,1, 7, 1, 0, 5,30.00,45.00,Saturday
7,11.625000000000002
8,101500.0
9,4.1
10,290.0
11,14.608079004210413
12,14.546965457199882
13,-0.8803828391979832
14,-0.8774000337329378
15,-0.32479313693587475
16,-0.32479313693587475
17,-1.1367759792755612
18,-1.1367759792755612
19,-0.32479313693587475
20,-0.32479313693587475
21,-1.1367759792755616
22,-1.1367759792755616
23,0.0
24,0.00041403246306370364
25,0.00041403245744906273
26,0.0
27,0.0
28,0.0004140364855417699
29,0.0004140364811206257
30,0.0
31,0.0
32,0.0
33,0.0
34,0.0
35,0.0
36,0.0
37,1.5435953615173732
38,0.0
39,0.0
40,0.0
41,1.51198682281747
42,0.0
43,0.3765068173603232
44,0.5020090898137642
45,0.0
46,0.37643050995371974
47,0.5019073466049596
48,0.0
2,1, 7, 1, 0, 5,45.00,60.00,Saturday
7,11.8
8,101500.0
9,4.1
10,290.0
11,14.578414731068904
12,14.519351956383112
13,-0.8692221606973211
14,-0.8663419952978361
15,-0.3245887731886718
16,-0.3245887731886718
17,-1.1360607061603507
18,-1.1360607061603507
19,-0.3245887731886718
20,-0.3245887731886718
21,-1.1360607061603512
22,-1.1360607061603512
23,0.0
24,0.0004141142328510775
25,0.0004141142304010896
26,0.0
27,0.0
28,0.0004141181031824052
29,0.0004141181012144009
30,0.0
31,0.0
32,0.0
33,0.0
34,0.0
35,0.0
36,0.0
37,1.4370958107566265
38,0.0
39,0.0
40,0.0
41,1.406559569691969
42,0.0
43,0.3763145836480826
44,0.5017527781974435
45,0.0
46,0.3762408500258627
47,0.5016544667011503
48,0.0
2,1, 7, 1, 0, 6, 0.00,15.00,Saturday
7,12.000000000000002
8,101500.0
9,4.1
10,292.5
11,14.546035781454261
12,14.489179689559588
13,-0.8056375554643087
14,-0.8028488358954483
15,-0.22298362871341687
16,-0.22298362871341687
17,-1.1351893825410306
18,-1.1351893825410306
19,-0.22298362871341687
20,-0.22298362871341687
21,-1.1351893825410313
22,-1.1351893825410313
23,0.0
24,0.0004471788310185267
25,0.00044716903263119465
26,0.0
27,0.0
28,0.00044718246616212064
29,0.00044717344592263257
30,0.0
31,0.0
32,0.0
33,0.0
34,0.0
35,0.0
36,0.0
37,1.4210644216369024
38,0.0
39,0.0
40,0.0
41,1.3893416095958195
42,0.0
43,0.4060366081414817
44,0.5413821441886423
45,0.0
46,0.405959661857256
47,0.541279549143008
48,0.0
2,1, 7, 1, 0, 6,15.00,30.00,Saturday
7,12.2
8,101500.0
9,4.1
10,295.0
11,14.51489031161411
12,14.460460224981212
13,-0.7421048675934689
14,-0.7394164503095645
15,-0.12153424154160605
16,-0.12153424154160605
17,-1.134319587721656
18,-1.134319587721656
19,-0.12153424154160605
20,-0.12153424154160605
21,-1.134319587721657
22,-1.134319587721657
23,0.0
24,0.00047898995336327074
25,0.00047898988181168604
26,0.0
27,0.0
28,0.000478994079235449
29,0.00047899401626727247
30,0.0
31,0.0
32,0.0
33,0.0
34,0.0
35,0.0
36,0.0
37,1.3830076390622545
38,0.0
39,0.0
40,0.0
41,1.3505005708809963
42,0.0
43,0.4345750521366244
44,0.5794334028488325
45,0.0
46,0.43449656405420706
47,0.5793287520722761
48,0.0
2,1, 7, 1, 0, 6,30.00,45.00,Saturday
7,12.399999999999999
8,101500.0
9,4.1
10,297.5
11,14.487768593156922
12,14.436310264881364
13,-0.6788641396806668
14,-0.6762802423409512
15,-0.020240202446821662
16,-0.020240202446821662
17,-1.13345133702201
18,-1.13345133702201
19,-0.020240202446821662
20,-0.020240202446821662
21,-1.1334513370220105
22,-1.1334513370220105
23,0.0
24,0.0005097405565212248
25,0.0005097170335885662
26,0.0
27,0.0
28,0.0005097412173252948
29,0.0005097247738312112
30,0.0
31,0.0
32,0.0
33,0.0
34,0.0
35,0.0
36,0.0
37,1.326475493771154
38,0.0
39,0.0
40,0.0
41,1.293782833276921
42,0.0
43,0.4621123342220628
44,0.6161497789627505
45,0.0
46,0.4620302582855598
47,0.6160403443807464
48,0.0
2,1, 7, 1, 0, 6,45.00,60.00,Saturday
7,12.6
8,101500.0
9,4.1
10,300.0
11,14.466221984884449
12,14.418574932448832
13,-0.615984997839771
14,-0.6135400124711747
15,0.08089890328961169
16,0.08089890328961169
17,-1.1325846460545632
18,-1.1325846460545632
19,0.08089890328961169
20,0.08089890328961169
21,-1.1325846460545639
22,-1.1325846460545639
23,0.0
24,0.0005395207417266586
25,0.0005395234713734892
26,0.0
27,0.0
28,0.0005395226994688401
29,0.000539529874369162
30,0.0
31,0.0
32,0.0
33,0.0
34,0.0
35,0.0
36,0.0
37,1.2541204429152792
38,0.0
39,0.0
40,0.0
41,1.2221055663147509
42,0.0
43,0.48873608187131923
44,0.651648109161759
45,0.0
46,0.4886568872316106
47,0.6515425163088141
48,0.0
2,1, 7, 1, 0, 7, 0.00,15.00,Saturday
7,12.774999999999999
8,101500.0
9,4.1
10,300.0
11,14.45211709884083
12,14.407204373528923
13,-0.605969052948966
14,-0.6037507372486143
15,0.08084853971133447
16,0.08084853971133447
17,-1.131879555958682
18,-1.131879555958682
19,0.08084853971133447
20,0.08084853971133447
21,-1.1318795559586827
22,-1.1318795559586827
23,0.0
24,0.0005395962673238846
25,0.00053966075107582
26,0.0
27,0.0
28,0.0005396245606874872
29,0.000539640051778742
30,0.0
31,0.0
32,0.0
33,0.0
34,0.0
35,0.0
36,0.0
37,1.1265096489496162
38,0.0
39,0.0
40,0.0
41,1.09639952259635
42,0.0
43,0.4884820549749392
44,0.6513094066332522
45,0.0
46,0.4884313791054365
47,0.6512418388072486
48,0.0
2,1, 7, 1, 0, 7,15.00,30.00,Saturday
7,12.95
8,101500.0
9,4.1
10,300.0
11,14.446747811707583
12,14.402919215942896
13,-0.5965215937775921
14,-0.5943909721151485
15,0.08079834410090397
16,0.08079834410090397
17,-1.131176817412655
18,-1.131176817412655
19,0.08079834410090397
20,0.08079834410090397
21,-1.1311768174126555
22,-1.1311768174126555
23,0.0
24,0.000539733266786842
25,0.0005397347303174405
26,0.0
27,0.0
28,0.0005397371876092298
29,0.0005397380470428074
30,0.0
31,0.0
32,0.0
33,0.0
34,0.0
35,0.0
36,0.0
37,1.0049981932952017
38,0.0
39,0.0
40,0.0
41,0.9755763682444695
42,0.0
43,0.4882985211270647
44,0.6510646948360862
45,0.0
46,0.4882276510099389
47,0.6509702013465852
48,0.0
2,1, 7, 1, 0, 7,30.00,45.00,Saturday
7,13.125000000000002
8,101500.0
9,4.1
10,300.0
11,14.447371815693002
12,14.404995928706496
13,-0.5874949841324133
14,-0.5854152396745685
15,0.08074831844008691
16,0.08074831844008691
17,-1.1304764581612161
18,-1.1304764581612161
19,0.08074831844008691
20,0.08074831844008691
21,-1.1304764581612168
22,-1.1304764581612168
23,0.0
24,0.0005398384286223159
25,0.0005398386430134551
26,0.0
27,0.0
28,0.0005398419839660535
29,0.0005398421289537753
30,0.0
31,0.0
32,0.0
33,0.0
34,0.0
35,0.0
36,0.0
37,0.8875437881068434
38,0.0
39,0.0
40,0.0
41,0.8591077818032685
42,0.0
43,0.48809644503132554
44,0.6507952600417674
45,0.0
46,0.48802773914329584
47,0.6507036521910611
48,0.0
2,1, 7, 1, 0, 7,45.00,60.00,Saturday
7,13.3
8,101500.0
9,4.1
10,300.0
11,14.450757188325145
12,14.41348967149475
13,-0.5787914023779683
14,-0.5767805417534426
15,0.08069846473557439
16,0.08069846473557439
17,-1.1297785062980412
18,-1.1297785062980412
19,0.08069846473557439
20,0.08069846473557439
21,-1.1297785062980419
22,-1.1297785062980419
23,0.0
24,0.0005399421860402347
25,0.0005399422350889014
26,0.0
27,0.0
28,0.0005399455862723861
29,0.0005399456217328989
30,0.0
31,0.0
32,0.0
33,0.0
34,0.0
35,0.0
36,0.0
37,0.772037478150804
38,0.0
39,0.0
40,0.0
41,0.747039584237133
42,0.0
43,0.4878979150502039
44,0.6505305534002719
45,0.0
46,0.4878377635926714
47,0.6504503514568952
48,0.0
2,1, 7, 1, 0, 8, 0.00,15.00,Saturday
7,13.725000000000001
8,101500.0
9,4.324999999999999
10,300.0
11,13.839125206094044
12,13.836031986808397
13,-0.6053546220278893
14,-0.6042357310124834
15,0.08966372731651817
16,0.08966372731651817
17,-1.2552921824312542
18,-1.2552921824312542
19,0.08966372731651817
20,0.08966372731651817
21,-1.2552921824312546
22,-1.2552921824312546
23,0.0
24,0.06553381487650248
25,0.06553387764462981
26,0.0
27,0.0
28,0.06553508346778365
29,0.06553513642146958
30,0.0
31,1.0
32,1.0
33,1.0
34,1.0
35,0.0
36,0.0
37,9.278014414556969
38,0.0
39,0.0
40,0.0
41,9.026824916165928
42,0.0
43,59.02640333359999
44,78.70187111146664
45,0.0
46,59.02691008507381
47,78.70254678009842
48,0.0
2,1, 7, 1, 0, 8,15.00,30.00,Saturday
7,14.15
8,101500.0
9,4.55
10,300.0
11,14.289433003076773
12,14.280925434149811
13,-0.6438091049140587
14,-0.6436291890152372
15,0.09908748834578522
16,0.09908748834578522
17,-1.3872248368409925
18,-1.3872248368409925
19,0.09908748834578522
20,0.09908748834578522
21,-1.3872248368409932
22,-1.3872248368409932
23,0.0
24,0.000618819048221773
25,0.0006188190484589073
26,0.0
27,0.0
28,0.0006188193535978321
29,0.0006188193538337766
30,0.0
31,1.0
32,1.0
33,1.0
34,1.0
35,0.0022454519177055893
36,0.0
37,0.10913913967176968
38,0.0
39,0.004652048596224588
40,0.0
41,0.1050236637470596
42,0.0
43,0.5574205988028385
44,0.7432274650704513
45,0.0
46,0.5574043771944632
47,0.7432058362592843
48,0.0
2,1, 7, 1, 0, 8,30.00,45.00,Saturday
7,14.575
8,101500.0
9,4.775
10,300.0
11,14.576540969786473
12,14.576202936842844
13,-0.7009761206804236
14,-0.7004349868352764
15,0.10896797304684658
16,0.10896797304684658
17,-1.5255516226558516
18,-1.5255516226558516
19,0.10896797304684658
20,0.10896797304684658
21,-1.525551622655852
22,-1.525551622655852
23,0.0
24,0.07238954906023304
25,0.0723895516326066
26,0.0
27,0.0
28,0.07239022420987078
29,0.07239022666885836
30,0.0
31,1.0
32,1.0
33,1.0
34,1.0
35,0.0
36,0.0
37,0.13799112531746968
38,0.0
39,0.0
40,0.0
41,0.10772187635036334
42,0.0
43,65.15040718322261
44,86.86720957763015
45,0.0
46,65.1509382723101
47,86.86791769641347
48,0.0
2,1, 7, 1, 0, 8,45.00,60.00,Saturday
7,15.0
8,101500.0
9,5.0
10,300.0
11,14.925645725057683
12,14.930163026016558
13,-0.7619717125803668
14,-0.7620589988890657
15,0.11930345943739676
16,0.11930345943739676
17,-1.670248432123554
18,-1.670248432123554
19,0.11930345943739676
20,0.11930345943739676
21,-1.6702484321235544
22,-1.6702484321235544
23,0.0
24,0.07580872323591002
25,0.07580872524451585
26,0.0
27,0.0
28,0.07580860864996894
29,0.07580861068101911
30,0.0
31,1.0
32,1.0
33,1.0
34,1.0
35,6.963009810393477
36,0.0
37,0.0
38,0.0
39,6.5400179014250766
40,0.0
41,0.0
42,0.0
43,68.23626925587978
44,90.98169234117303
45,0.0
46,68.23723606800718
47,90.98298142400958
48,0.0
2,1, 7, 1, 0, 9, 0.00,15.00,Saturday
7,15.4
8,101500.0
9,5.2
10,302.5
11,15.26498732643398
12,15.2745229687493
13,-0.752356456985303
14,-0.7528196409593086
15,0.2469779865651958
16,0.2469779865651958
17,-1.7664295126075955
18,-1.7664295126075955
19,0.2469779865651958
20,0.2469779865651958
21,-1.7664295126075964
22,-1.7664295126075964
23,0.0
24,0.08045838676528258
25,0.08045838677049513
26,0.0
27,0.0
28,0.08045773819639226
29,0.08045773820227613
30,0.0
31,1.0
32,1.0
33,1.0
34,1.0
35,13.399329108951104
36,0.0
37,0.0
38,0.0
39,12.452860827008656
40,0.0
41,0.0
42,0.0
43,72.40632272782011
44,96.54176363709348
45,0.0
46,72.40813291440918
47,96.54417721921223
48,0.0
2,1, 7, 1, 0, 9,15.00,30.00,Saturday
7,15.8
8,101500.0
9,5.4
10,305.0
11,15.615213047044177
12,15.630183699329432
13,-0.7243138312803877
14,-0.7250397337011705
15,0.39317519670776724
16,0.39317519670776724
17,-1.8618001961750155
18,-1.8618001961750155
19,0.39317519670776724
20,0.39317519670776724
21,-1.861800196175016
22,-1.861800196175016
23,0.0
24,0.08520487775747718
25,0.08521787196888941
26,0.0
27,0.0
28,0.08520371486648276
29,0.08521686386679377
30,0.0
31,1.0
32,1.0
33,1.0
34,1.0
35,19.394204861953533
36,0.0
37,0.0
38,0.0
39,17.822721628450026
40,0.0
41,0.0
42,0.0
43,76.66464430270402
44,102.21952573693869
45,0.0
46,76.66757244062711
47,102.22342992083614
48,0.0
2,1, 7, 1, 0, 9,30.00,45.00,Saturday
7,16.200000000000003
8,101500.0
9,5.6
10,307.5
11,15.972108718914082
12,15.993543358262713
13,-0.6867077322113238
14,-0.6877439644401658
15,0.5588668597436466
16,0.5588668597436466
17,-1.9560340091027624
18,-1.9560340091027624
19,0.5588668597436466
20,0.5588668597436466
21,-1.956034009102763
22,-1.956034009102763
23,0.0
24,0.09005277696334987
25,0.09005524994611483
26,0.0
27,0.0
28,0.09005111191168819
29,0.09005362840591136
30,0.0
31,1.0
32,1.0
33,1.0
34,1.0
35,25.244124883518886
36,0.0
37,0.0
38,0.0
39,22.869325163354624
40,0.0
41,0.0
42,0.0
43,81.01461401683622
44,108.01948535578163
45,0.0
46,81.0191220757761
47,108.0254961010348
48,0.0
2,1, 7, 1, 0, 9,45.00,60.00,Saturday
7,16.6
8,101500.0
9,5.8
10,310.0
11,16.3357837589207
12,16.361755996620623
13,-0.6383857581756155
14,-0.63964335316982
15,0.7450205073856322
16,0.7450205073856322
17,-2.0488063953104882
18,-2.0488063953104882
19,0.7450205073856322
20,0.7450205073856322
21,-2.0488063953104887
22,-2.0488063953104887
23,0.0
24,0.09498449598802561
25,0.09498493077875007
26,0.0
27,0.0
28,0.09498237519453248
29,0.09498282033147099
30,0.0
31,1.0
32,1.0
33,1.0
34,1.0
35,30.828134137777152
36,0.0
37,0.0
38,0.0
39,27.797129104868034
40,0.0
41,0.0
42,0.0
43,85.44069682684821
44,113.92092910246429
45,0.0
46,85.44645452206564
47,113.92860602942083
48,0.0
2,1, 7, 1, 0,10, 0.00,15.00,Saturday
7,17.025000000000002
8,101500.0
9,6.0249999999999995
10,310.0
11,16.722406423695446
12,16.754156376241113
13,-0.6871947252679866
14,-0.6887183911196244
15,0.8028077420260111
16,0.8028077420260111
17,-2.20772129057153
18,-2.20772129057153
19,0.8028077420260111
20,0.8028077420260111
21,-2.207721290571531
22,-2.207721290571531
23,0.0
24,0.09867246501211507
25,0.09867290942679977
26,0.0
27,0.0
28,0.0986697824283018
29,0.0986702389660028
30,0.0
31,1.0
32,1.0
33,1.0
34,1.0
35,36.6227504204078
36,0.0
37,0.0
38,0.0
39,32.77917323194331
40,0.0
41,0.0
42,0.0
43,88.7462921358869
44,118.32838951451588
45,0.0
46,88.75359954130005
47,118.33813272173339
48,0.0
2,1, 7, 1, 0,10,15.00,30.00,Saturday
7,17.450000000000003
8,101500.0
9,6.25
10,310.0
11,17.113898244295726
12,17.151260388734705
13,-0.7381024283128652
14,-0.739887847366367
15,0.8626778346899722
16,0.8626778346899722