Program Version,EnergyPlus, Version 22.2.0-c249759bad, YMD=2025.09.09 22:43
1,5,Environment Title[],Latitude[deg],Longitude[deg],Time Zone[],Elevation[m]
2,8,Day of Simulation[],Month[],Day of Month[],DST Indicator[1=yes 0=no],Hour[],StartMinute[],EndMinute[],DayType
3,5,Cumulative Day of Simulation[],Month[],Day of Month[],DST Indicator[1=yes 0=no],DayType  ! When Daily Report Variables Requested
4,2,Cumulative Days of Simulation[],Month[]  ! When Monthly Report Variables Requested
5,1,Cumulative Days of Simulation[] ! When Run Period Report Variables Requested
6,1,Calendar Year of Simulation[] ! When Annual Report Variables Requested
7,1,Environment,Site Outdoor Air Drybulb Temperature [C] !TimeStep
8,1,Environment,Site Outdoor Air Dewpoint Temperature [C] !TimeStep
9,1,Environment,Site Outdoor Air Wetbulb Temperature [C] !TimeStep
10,1,Environment,Site Diffuse Solar Radiation Rate per Area [W/m2] !TimeStep
11,1,Environment,Site Direct Solar Radiation Rate per Area [W/m2] !TimeStep
12,1,Environment,Site Solar Azimuth Angle [deg] !TimeStep
13,1,Environment,Site Solar Altitude Angle [deg] !TimeStep
End of Data Dictionary
1,SUMMER,  37.46,-122.11,  -8.00,   1.00
2,1, 7, 1, 0, 1, 0.00,15.00,Saturday
7,18.65
8,13.500000000000002
9,15.506138388388512
10,0.0
11,0.0
12,0.813845992880616
13,-29.37040777546127
2,1, 7, 1, 0, 1,15.00,30.00,Saturday
7,17.6
8,13.2
9,14.95520882365769
10,0.0
11,0.0
12,4.763802213187274
13,-29.225541798861435
2,1, 7, 1, 0, 1,30.00,45.00,Saturday
7,16.55
8,12.899999999999999
9,14.372986587507057
10,0.0
11,0.0
12,8.687533996163891
13,-28.87684189434883
2,1, 7, 1, 0, 1,45.00,60.00,Saturday
7,15.5
8,12.6
9,13.760851984421823
10,0.0
11,0.0
12,12.564416911604267
13,-28.327824491869773
2,1, 7, 1, 0, 2, 0.00,15.00,Saturday
7,15.4
8,12.549999999999999
9,13.692276921440287
10,0.0
11,0.0
12,16.37569581875607
13,-27.583868453319255
2,1, 7, 1, 0, 2,15.00,30.00,Saturday
7,15.3
8,12.5
9,13.623522390841163
10,0.0
11,0.0
12,20.105101419663747
13,-26.651968061529587
2,1, 7, 1, 0, 2,30.00,45.00,Saturday
7,15.2
8,12.450000000000001
9,13.554584812043055
10,0.0
11,0.0
12,23.73925634632866
13,-25.540433924215943
2,1, 7, 1, 0, 2,45.00,60.00,Saturday
7,15.1
8,12.4
9,13.485456733279337
10,0.0
11,0.0
12,27.267863049020345
13,-24.25856942518454
2,1, 7, 1, 0, 3, 0.00,15.00,Saturday
7,15.0
8,12.375
9,13.441996803530513
10,0.0
11,0.0
12,30.68369298196307
13,-22.816348511955272
2,1, 7, 1, 0, 3,15.00,30.00,Saturday
7,14.899999999999999
8,12.350000000000001
9,13.398114757371479
10,0.0
11,0.0
12,33.98241537206135
13,-21.224115748023042
2,1, 7, 1, 0, 3,30.00,45.00,Saturday
7,14.799999999999999
8,12.325000000000001
9,13.353822411582643
10,0.0
11,0.0
12,37.16231276177653
13,-19.49232316710142
2,1, 7, 1, 0, 3,45.00,60.00,Saturday
7,14.7
8,12.3
9,13.309121274226916
10,0.0
11,0.0
12,40.22393066855575
13,-17.631311939180154
2,1, 7, 1, 0, 4, 0.00,15.00,Saturday
7,14.624999999999998
8,12.250000000000002
9,13.23725447019623
10,0.0
11,0.0
12,43.16970270614778
13,-15.651141198553292
2,1, 7, 1, 0, 4,15.00,30.00,Saturday
7,14.55
8,12.2
9,13.165396076027074
10,0.0
11,0.0
12,46.0035833106129
13,-13.561462117227094
2,1, 7, 1, 0, 4,30.00,45.00,Saturday
7,14.475000000000001
8,12.149999999999999
9,13.093537156350267
10,0.0
11,0.0
12,48.730710289967654
13,-11.371432542783248
2,1, 7, 1, 0, 4,45.00,60.00,Saturday
7,14.4
8,12.1
9,13.02167523092577
10,0.0
11,0.0
12,51.357110444011354
13,-9.089666089235312
2,1, 7, 1, 0, 5, 0.00,15.00,Saturday
7,14.3
8,12.075
9,12.976093271850473
10,0.0
11,0.0
12,53.88945433841395
13,-6.7242091687277785
2,1, 7, 1, 0, 5,15.00,30.00,Saturday
7,14.2
8,12.05
9,12.930109074898892
10,0.0
11,0.0
12,56.33486119493952
13,-4.2825397514018295
2,1, 7, 1, 0, 5,30.00,45.00,Saturday
7,14.1
8,12.025
9,12.883727940306015
10,0.0
11,0.0
12,58.70075161730454
13,-1.7715823507148025
2,1, 7, 1, 0, 5,45.00,60.00,Saturday
7,14.0
8,12.0
9,12.836940910203902
10,16.5
11,181.5
12,60.99474416458865
13,0.802265369589559
2,1, 7, 1, 0, 6, 0.00,15.00,Saturday
7,14.15
8,12.1
9,12.956746495525758
10,24.75
11,272.25
12,63.22459122547986
13,3.4330980332371763
2,1, 7, 1, 0, 6,15.00,30.00,Saturday
7,14.3
8,12.2
9,13.076297411430398
10,33.0
11,363.0
12,65.39814989300928
13,6.115462813854696
2,1, 7, 1, 0, 6,30.00,45.00,Saturday
7,14.45
8,12.3
9,13.195590692992605
10,43.5
11,418.0
12,67.52338432575586
13,8.844316509901184
2,1, 7, 1, 0, 6,45.00,60.00,Saturday
7,14.6
8,12.4
9,13.314626352431446
10,54.0
11,473.0
12,69.60839723048406
13,11.614980733351857
2,1, 7, 1, 0, 7, 0.00,15.00,Saturday
7,15.25
8,12.8
9,13.784282059478448
10,64.5
11,528.0
12,71.66148951861048
13,14.423095922788672
2,1, 7, 1, 0, 7,15.00,30.00,Saturday
7,15.899999999999999
8,13.2
9,14.246904556081581
10,75.0
11,583.0
12,73.69124885546096
13,17.264574374217602
2,1, 7, 1, 0, 7,30.00,45.00,Saturday
7,16.549999999999997
8,13.6
9,14.70236737395719
10,82.25
11,617.5
12,75.70666978720917
13,20.135552007239788
2,1, 7, 1, 0, 7,45.00,60.00,Saturday
7,17.2
8,14.0
9,15.15054910423831
10,89.5
11,652.0
12,77.71731051703462
13,23.032338110765867
2,1, 7, 1, 0, 8, 0.00,15.00,Saturday
7,17.45
8,14.05
9,15.301384248743707
10,96.75
11,686.5
12,79.73349441361124
13,25.95136179231785
2,1, 7, 1, 0, 8,15.00,30.00,Saturday
7,17.7
8,14.1
9,15.450715704941567
10,104.0
11,721.0
12,81.76656828419087
13,28.88911322456372
2,1, 7, 1, 0, 8,30.00,45.00,Saturday
7,17.95
8,14.149999999999999
9,15.598530123440932
10,108.25
11,743.0
12,83.82923479712734
13,31.84207695476928
2,1, 7, 1, 0, 8,45.00,60.00,Saturday
7,18.2
8,14.2
9,15.744820187257806
10,112.5
11,765.0
12,85.93598388560372
13,34.80665339089467
2,1, 7, 1, 0, 9, 0.00,15.00,Saturday
7,18.45
8,14.45
9,15.977886325256303
10,116.75
11,787.0
12,88.10365853180583
13,37.77906291129234
2,1, 7, 1, 0, 9,15.00,30.00,Saturday
7,18.7
8,14.7
9,16.210966273939405
10,121.0
11,809.0
12,90.35220554267657
13,40.755224566518166
2,1, 7, 1, 0, 9,30.00,45.00,Saturday
7,18.95
8,14.95
9,16.44406020289414
10,122.75
11,824.0
12,92.70568402983633
13,43.730597579592015
2,1, 7, 1, 0, 9,45.00,60.00,Saturday
7,19.2
8,15.2
9,16.67716745923943
10,124.5
11,839.0
12,95.19363652948925
13,46.699968042839956
2,1, 7, 1, 0,10, 0.00,15.00,Saturday
7,19.549999999999997
8,15.399999999999999
9,16.91238235562167
10,126.25
11,854.0
12,97.8529744453247
13,49.65715411269911
2,1, 7, 1, 0,10,15.00,30.00,Saturday
7,19.9
8,15.6
9,17.145530716887606
10,128.0
11,869.0
12,100.7305959826039
13,52.59458859093152
2,1, 7, 1, 0,10,30.00,45.00,Saturday
7,20.25
8,15.8
9,17.376572301686394
10,128.0
11,878.75
12,103.88704464876542
13,55.50271478458659
2,1, 7, 1, 0,10,45.00,60.00,Saturday
7,20.6
8,16.0
9,17.605496263981625
10,128.0
11,888.5
12,107.40162330326338
13,58.36909490618041
2,1, 7, 1, 0,11, 0.00,15.00,Saturday
7,21.3
8,16.0
9,17.861094150259284
10,128.0
11,898.25
12,111.37945931836092
13,61.17707302676933
2,1, 7, 1, 0,11,15.00,30.00,Saturday
7,22.0
8,16.0
9,18.09590584899636
10,128.0
11,908.0
12,115.96091316773986
13,63.90375015929878
2,1, 7, 1, 0,11,30.00,45.00,Saturday
7,22.699999999999996
8,16.0
9,18.309000316758983
10,127.75
11,913.0
12,121.3329572563638
13,66.51692354051191
2,1, 7, 1, 0,11,45.00,60.00,Saturday
7,23.4
8,16.0
9,18.499386886766896
10,127.5
11,918.0
12,127.7394362591774
13,68.97057967005684
2,1, 7, 1, 0,12, 0.00,15.00,Saturday
7,23.9
8,16.05
9,18.71658882599655
10,127.25
11,923.0
12,135.47953017842585
13,71.19877019842711
2,1, 7, 1, 0,12,15.00,30.00,Saturday
7,24.4
8,16.1
9,18.925892259936436
10,127.0
11,928.0
12,144.86698775303972
13,73.10900399563455
2,1, 7, 1, 0,12,30.00,45.00,Saturday
7,24.9
8,16.15
9,19.127090485026304
10,127.0
11,929.0
12,156.10072541218554
13,74.5801353691899
2,1, 7, 1, 0,12,45.00,60.00,Saturday
7,25.4
8,16.2
9,19.319974482703287
10,127.0
11,930.0
12,169.01815504530234
13,75.47626002331425
2,1, 7, 1, 0,13, 0.00,15.00,Saturday
7,25.9
8,16.25
9,19.504314349348224
10,127.0
11,931.0
12,182.8701566021299
13,75.68790437180485
2,1, 7, 1, 0,13,15.00,30.00,Saturday
7,26.4
8,16.299999999999997
9,19.679874919772995
10,127.0
11,932.0
12,196.46645903689154
13,75.18547357281395
2,1, 7, 1, 0,13,30.00,45.00,Saturday
7,26.9
8,16.349999999999998
9,19.846409820119707
10,127.25
11,928.75
12,208.74593073746095
13,74.03675911335519
2,1, 7, 1, 0,13,45.00,60.00,Saturday
7,27.4
8,16.4
9,20.003649808727836
10,127.5
11,925.5
12,219.21248890897135
13,72.36874502811466
2,1, 7, 1, 0,14, 0.00,15.00,Saturday
7,27.749999999999996
8,15.849999999999998
9,19.849797462018838
10,127.75
11,922.25
12,227.887183827748
13,70.31458966889649
2,1, 7, 1, 0,14,15.00,30.00,Saturday
7,28.1
8,15.299999999999999
9,19.679827433698236
10,128.0
11,919.0
12,235.0397458569068
13,67.98408396161791
2,1, 7, 1, 0,14,30.00,45.00,Saturday
7,28.450000000000003
8,14.749999999999998
9,19.49298504225132
10,128.0
11,911.0
12,240.98724739470492
13,65.45810377277185
2,1, 7, 1, 0,14,45.00,60.00,Saturday
7,28.8
8,14.2
9,19.288455753845472
10,128.0
11,903.0
12,246.00790824359805
13,62.79356868216842
2,1, 7, 1, 0,15, 0.00,15.00,Saturday
7,28.6
8,14.349999999999998
9,19.325484022001227
10,128.0
11,895.0
12,250.32130317365667
13,60.030157187298975
2,1, 7, 1, 0,15,15.00,30.00,Saturday
7,28.4
8,14.5
9,19.358960167251684
10,128.0
11,887.0
12,254.09379532609643
13,57.19578990257896
2,1, 7, 1, 0,15,30.00,45.00,Saturday
7,28.2
8,14.650000000000002
9,19.388952873934493
10,127.25
11,874.25
12,257.449957576404
13,54.31049477390323
2,1, 7, 1, 0,15,45.00,60.00,Saturday
7,28.0
8,14.8
9,19.415533805388193
10,126.5
11,861.5
12,260.48329159142776
13,51.38899295120227
2,1, 7, 1, 0,16, 0.00,15.00,Saturday
7,27.95
8,14.600000000000001
9,19.283304170728876
10,125.75
11,848.75
12,263.26464932092983
13,48.44240476892408
2,1, 7, 1, 0,16,15.00,30.00,Saturday
7,27.9
8,14.4
9,19.151016659794863
10,125.0
11,836.0
12,265.8484345687291
13,45.479379639625215
2,1, 7, 1, 0,16,30.00,45.00,Saturday
7,27.85
8,14.2
9,19.018675724409903
10,121.75
11,817.5
12,268.2770611769918
13,42.50685407496097
2,1, 7, 1, 0,16,45.00,60.00,Saturday
7,27.8
8,14.0
9,18.886290250891726
10,118.5
11,799.0
12,270.5841394112418
13,39.53056927493142
2,1, 7, 1, 0,17, 0.00,15.00,Saturday
7,27.55
8,14.0
9,18.781602723224548
10,115.25
11,780.5
12,272.79676088484723
13,36.55543189149938
2,1, 7, 1, 0,17,15.00,30.00,Saturday
7,27.3
8,14.0
9,18.67529539621273
10,112.0
11,762.0
12,274.9371502740231
13,33.58577129619407
2,1, 7, 1, 0,17,30.00,45.00,Saturday
7,27.05
8,14.0
9,18.567391587217934
10,106.0
11,733.75
12,277.0238719227786
13,30.62552771464729
2,1, 7, 1, 0,17,45.00,60.00,Saturday
7,26.8
8,14.0
9,18.45789768525784
10,100.0
11,705.5
12,279.07272170097036
13,27.678393678184765
2,1, 7, 1, 0,18, 0.00,15.00,Saturday
7,26.5
8,14.0
9,18.394774969971536
10,94.0
11,677.25
12,281.09739431268656
13,24.74792369107277
2,1, 7, 1, 0,18,15.00,30.00,Saturday
7,26.200000000000003
8,14.0
9,18.327479416241363
10,88.0
11,649.0
12,283.1099886583971
13,21.837622163261738
2,1, 7, 1, 0,18,30.00,45.00,Saturday
7,25.900000000000002
8,14.0
9,18.2560864146932
10,79.25
11,601.25
12,285.12139491647133
13,18.95101649690764
2,1, 7, 1, 0,18,45.00,60.00,Saturday
7,25.6
8,14.0
9,18.18068986168486
10,70.5
11,553.5
12,287.14159393359125
13,16.091720115635376
2,1, 7, 1, 0,19, 0.00,15.00,Saturday
7,25.1
8,14.0
9,18.019037601867492
10,61.75
11,505.75
12,289.1798903817811
13,13.263488799251826
2,1, 7, 1, 0,19,15.00,30.00,Saturday
7,24.6
8,14.0
9,17.848106873358233
10,53.0
11,458.0
12,291.2450946566411
13,10.470272686673084
2,1, 7, 1, 0,19,30.00,45.00,Saturday
7,24.1
8,14.0
9,17.668158126064696
10,41.75
11,400.75
12,293.3456637850219
13,7.7162655757904615
2,1, 7, 1, 0,19,45.00,60.00,Saturday
7,23.6
8,14.0
9,17.479438716455146
10,30.5
11,343.5
12,295.4898080933642
13,5.005952572913233
2,1, 7, 1, 0,20, 0.00,15.00,Saturday
7,23.425000000000004
8,14.0
9,17.40756883568604
10,19.25
11,286.25
12,297.6855676643711
13,2.3441566502053424
2,1, 7, 1, 0,20,15.00,30.00,Saturday
7,23.25
8,14.0
9,17.33473023375409
10,0.0
11,0.0
12,299.9408604157276
13,-0.26391579952538635
2,1, 7, 1, 0,20,30.00,45.00,Saturday
7,23.074999999999996
8,14.0
9,17.260923687887498
10,0.0
11,0.0
12,302.26350180232293
13,-2.8126308098346384
2,1, 7, 1, 0,20,45.00,60.00,Saturday
7,22.9
8,14.0
9,17.186152866786333
10,0.0
11,0.0
12,304.66119458153827
13,-5.295885032692259
2,1, 7, 1, 0,21, 0.00,15.00,Saturday
7,22.525
8,13.925
9,17.048732879591192
10,0.0
11,0.0
12,307.1414857677526
13,-7.7070678467741836
2,1, 7, 1, 0,21,15.00,30.00,Saturday
7,22.15
8,13.85
9,16.906149400216357
10,0.0
11,0.0
12,309.71168688648476
13,-10.039029683007554
2,1, 7, 1, 0,21,30.00,45.00,Saturday
7,21.775
8,13.774999999999999
9,16.758502230426963
10,0.0
11,0.0
12,312.3787530479686
13,-12.284059702199553
2,1, 7, 1, 0,21,45.00,60.00,Saturday
7,21.4
8,13.7
9,16.605901451743254
10,0.0
11,0.0
12,315.1491164077738
13,-14.433876874524358
2,1, 7, 1, 0,22, 0.00,15.00,Saturday
7,21.249999999999996
8,13.724999999999998
9,16.543490393173936
10,0.0
11,0.0
12,318.0284705681509
13,-16.479639446215135
2,1, 7, 1, 0,22,15.00,30.00,Saturday
7,21.1
8,13.75
9,16.48031727689214
10,0.0
11,0.0
12,321.02150476594255
13,-18.411978622107345
2,1, 7, 1, 0,22,30.00,45.00,Saturday
7,20.950000000000003
8,13.775000000000002
9,16.416372328357394
10,0.0
11,0.0
12,324.13159067345754
13,-20.221062864740883
2,1, 7, 1, 0,22,45.00,60.00,Saturday
7,20.8
8,13.8
9,16.351669815988377
10,0.0
11,0.0
12,327.36043059791314
13,-21.896699260480652
2,1, 7, 1, 0,23, 0.00,15.00,Saturday
7,20.675
8,13.8
9,16.308299279653998
10,0.0
11,0.0
12,330.70768383050915
13,-23.428477619131154
2,1, 7, 1, 0,23,15.00,30.00,Saturday
7,20.55
8,13.8
9,16.2642746822009
10,0.0
11,0.0
12,334.17059740747374
13,-24.80596102625859
2,1, 7, 1, 0,23,30.00,45.00,Saturday
7,20.425
8,13.8
9,16.219600608339892
10,0.0
11,0.0
12,337.74367742442195
13,-26.01892319296482
2,1, 7, 1, 0,23,45.00,60.00,Saturday
7,20.3
8,13.8
9,16.174291758028307
10,0.0
11,0.0
12,341.41844526866106
13,-27.05762807377602
2,1, 7, 1, 0,24, 0.00,15.00,Saturday
7,20.150000000000002
8,13.8
9,16.13857977135296
10,0.0
11,0.0
12,345.1833269614726
13,-27.91314111582019
2,1, 7, 1, 0,24,15.00,30.00,Saturday
7,20.0
8,13.8
9,16.101669539498683
10,0.0
11,0.0
12,349.023720308631
13,-28.577654883219218
2,1, 7, 1, 0,24,30.00,45.00,Saturday
7,19.849999999999998
8,13.8
9,16.063556729307052
10,0.0
11,0.0
12,352.92227159647854
13,-29.044805856206494
2,1, 7, 1, 0,24,45.00,60.00,Saturday
7,19.7
8,13.8
9,16.024273326273946
10,0.0
11,0.0
12,356.8593709609989
13,-29.30995541434711
End of Data
 Number of Records Written=         672
