Program Version,EnergyPlus, Version 22.2.0-c249759bad, YMD=2025.11.12 19:08
1,5,Environment Title[],Latitude[deg],Longitude[deg],Time Zone[],Elevation[m]
2,8,Day of Simulation[],Month[],Day of Month[],DST Indicator[1=yes 0=no],Hour[],StartMinute[],EndMinute[],DayType
3,5,Cumulative Day of Simulation[],Month[],Day of Month[],DST Indicator[1=yes 0=no],DayType  ! When Daily Report Variables Requested
4,2,Cumulative Days of Simulation[],Month[]  ! When Monthly Report Variables Requested
5,1,Cumulative Days of Simulation[] ! When Run Period Report Variables Requested
6,1,Calendar Year of Simulation[] ! When Annual Report Variables Requested
7,1,Environment,Site Outdoor Air Drybulb Temperature [C] !TimeStep
8,1,Environment,Site Outdoor Air Barometric Pressure [Pa] !TimeStep
9,1,Environment,Site Wind Speed [m/s] !TimeStep
10,1,Environment,Site Wind Direction [deg] !TimeStep
11,1,BLOCK `ROOM1` STOREY 0,Zone Mean Air Temperature [C] !TimeStep
12,1,BLOCK `ROOM2` STOREY 0,Zone Mean Air Temperature [C] !TimeStep
13,1,BLOCK `ROOM1` STOREY 0,AFN Node Total Pressure [Pa] !TimeStep
14,1,BLOCK `ROOM2` STOREY 0,AFN Node Total Pressure [Pa] !TimeStep
15,1,AFN_EXTERNAL_NODE_NORTH_ROOM1,AFN Node Total Pressure [Pa] !TimeStep
16,1,AFN_EXTERNAL_NODE_NORTH_ROOM1,AFN Node Wind Pressure [Pa] !TimeStep
17,1,AFN_EXTERNAL_NODE_SOUTH_ROOM1,AFN Node Total Pressure [Pa] !TimeStep
18,1,AFN_EXTERNAL_NODE_SOUTH_ROOM1,AFN Node Wind Pressure [Pa] !TimeStep
19,1,AFN_EXTERNAL_NODE_NORTH_ROOM2,AFN Node Total Pressure [Pa] !TimeStep
20,1,AFN_EXTERNAL_NODE_NORTH_ROOM2,AFN Node Wind Pressure [Pa] !TimeStep
21,1,AFN_EXTERNAL_NODE_SOUTH_ROOM2,AFN Node Total Pressure [Pa] !TimeStep
22,1,AFN_EXTERNAL_NODE_SOUTH_ROOM2,AFN Node Wind Pressure [Pa] !TimeStep
23,1,DOOR__BLOCK `ROOM1` STOREY 0 WALL 0001,AFN Linkage Node 1 to Node 2 Volume Flow Rate [m3/s] !TimeStep
24,1,DOOR__BLOCK `ROOM1` STOREY 0 WALL 0001,AFN Linkage Node 2 to Node 1 Volume Flow Rate [m3/s] !TimeStep
25,1,DOOR__BLOCK `ROOM1` STOREY 0 WALL 0003,AFN Linkage Node 1 to Node 2 Volume Flow Rate [m3/s] !TimeStep
26,1,DOOR__BLOCK `ROOM1` STOREY 0 WALL 0003,AFN Linkage Node 2 to Node 1 Volume Flow Rate [m3/s] !TimeStep
27,1,DOOR__BLOCK `ROOM2` STOREY 0 WALL 0001,AFN Linkage Node 1 to Node 2 Volume Flow Rate [m3/s] !TimeStep
28,1,DOOR__BLOCK `ROOM2` STOREY 0 WALL 0001,AFN Linkage Node 2 to Node 1 Volume Flow Rate [m3/s] !TimeStep
29,1,DOOR__BLOCK `ROOM2` STOREY 0 WALL 0003,AFN Linkage Node 1 to Node 2 Volume Flow Rate [m3/s] !TimeStep
30,1,DOOR__BLOCK `ROOM2` STOREY 0 WALL 0003,AFN Linkage Node 2 to Node 1 Volume Flow Rate [m3/s] !TimeStep
31,1,DOOR__BLOCK `ROOM1` STOREY 0 WALL 0001,AFN Surface Venting Availability Status [] !TimeStep
32,1,DOOR__BLOCK `ROOM1` STOREY 0 WALL 0003,AFN Surface Venting Availability Status [] !TimeStep
33,1,DOOR__BLOCK `ROOM2` STOREY 0 WALL 0001,AFN Surface Venting Availability Status [] !TimeStep
34,1,DOOR__BLOCK `ROOM2` STOREY 0 WALL 0003,AFN Surface Venting Availability Status [] !TimeStep
35,1,BLOCK `ROOM1` STOREY 0,AFN Zone Ventilation Sensible Heat Gain Rate [W] !TimeStep
36,1,BLOCK `ROOM1` STOREY 0,AFN Zone Mixing Sensible Heat Gain Rate [W] !TimeStep
37,1,BLOCK `ROOM1` STOREY 0,AFN Zone Ventilation Sensible Heat Loss Rate [W] !TimeStep
38,1,BLOCK `ROOM1` STOREY 0,AFN Zone Mixing Sensible Heat Loss Rate [W] !TimeStep
39,1,BLOCK `ROOM2` STOREY 0,AFN Zone Ventilation Sensible Heat Gain Rate [W] !TimeStep
40,1,BLOCK `ROOM2` STOREY 0,AFN Zone Mixing Sensible Heat Gain Rate [W] !TimeStep
41,1,BLOCK `ROOM2` STOREY 0,AFN Zone Ventilation Sensible Heat Loss Rate [W] !TimeStep
42,1,BLOCK `ROOM2` STOREY 0,AFN Zone Mixing Sensible Heat Loss Rate [W] !TimeStep
43,1,BLOCK `ROOM1` STOREY 0,AFN Zone Ventilation Volume [m3] !TimeStep
44,1,BLOCK `ROOM1` STOREY 0,AFN Zone Ventilation Air Change Rate [ach] !TimeStep
45,1,BLOCK `ROOM1` STOREY 0,AFN Zone Mixing Volume [m3] !TimeStep
46,1,BLOCK `ROOM2` STOREY 0,AFN Zone Ventilation Volume [m3] !TimeStep
47,1,BLOCK `ROOM2` STOREY 0,AFN Zone Ventilation Air Change Rate [ach] !TimeStep
48,1,BLOCK `ROOM2` STOREY 0,AFN Zone Mixing Volume [m3] !TimeStep
End of Data Dictionary
1,JULY_1,  37.62,-122.40,  -8.00,   2.00
2,1, 7, 1, 0, 1, 0.00,15.00,Saturday
7,13.150000000000002
8,101450.0
9,6.45
10,285.0
11,18.46609899451025
12,18.34355649564587
13,-2.2968776244629767
14,-2.291022396659658
15,-1.2975015304897581
16,-1.2975015304897581
17,-2.7946186810548634
18,-2.7946186810548634
19,-1.2975015304897581
20,-1.2975015304897581
21,-2.794618681054864
22,-2.794618681054864
23,0.0
24,0.0006199198285117304
25,0.0006199197683204942
26,0.0
27,0.0
28,0.0006199322716557737
29,0.0006199322165980685
30,0.0
31,0.0
32,0.0
33,0.0
34,0.0
35,0.0
36,0.0
37,4.095289542148221
38,0.0
39,0.0
40,0.0
41,4.000968481353099
42,0.0
43,0.5682932685030944
44,0.7577243580041259
45,0.0
46,0.5680658584857613
47,0.7574211446476817
48,0.0
2,1, 7, 1, 0, 1,15.00,30.00,Saturday
7,13.5
8,101500.0
9,5.9
10,280.0
11,18.454189709199206
12,18.335783697466805
13,-2.145131883382075
14,-2.139500711266132
15,-1.5016886976577148
16,-1.5016886976577148
17,-2.335960196356444
18,-2.335960196356444
19,-1.5016886976577148
20,-1.5016886976577148
21,-2.335960196356445
22,-2.335960196356445
23,0.0
24,0.0004243408965526008
25,0.00042431691446621276
26,0.0
27,0.0
28,0.0004243456858500314
29,0.0004243285751719714
30,0.0
31,0.0
32,0.0
33,0.0
34,0.0
35,0.0
36,0.0
37,2.6106313952577027
38,0.0
39,0.0
40,0.0
41,2.5482656029308837
42,0.0
43,0.3885260888924835
44,0.518034785189978
45,0.0
46,0.3883727089227803
47,0.5178302785637071
48,0.0
2,1, 7, 1, 0, 1,30.00,45.00,Saturday
7,13.849999999999998
8,101550.0
9,5.35
10,275.0
11,18.42837304376729
12,18.314649225123336
13,-1.9516474426980863
14,-1.9462466357837154
15,-1.5761396178668703
16,-1.5761396178668703
17,-1.9187786652292327
18,-1.9187786652292327
19,-1.5761396178668703
20,-1.5761396178668703
21,-1.9187786652292336
22,-1.9187786652292336
23,0.0
24,0.0002381904491671763
25,0.00023819928931781255
26,0.0
27,0.0
28,0.00023819482729292465
29,0.00023820374912207252
30,0.0
31,0.0
32,0.0
33,0.0
34,0.0
35,0.0
36,0.0
37,1.3533076391658545
38,0.0
39,0.0
40,0.0
41,1.3197166116133499
42,0.0
43,0.21780976393675866
44,0.29041301858234486
45,0.0
46,0.21772881342545025
47,0.290305084567267
48,0.0
2,1, 7, 1, 0, 1,45.00,60.00,Saturday
7,14.2
8,101600.0
9,4.8
10,270.0
11,18.410209090852515
12,18.30143614490912
13,-1.7252228199456163
14,-1.7200579303224286
15,-1.5429549534374045
16,-1.5429549534374045
17,-1.5429549534374039
18,-1.5429549534374039
19,-1.5429549534374045
20,-1.5429549534374045
21,-1.5429549534374045
22,-1.5429549534374045
23,2.02990160390464e-14
24,0.0
25,0.0
26,1.0262317399579551e-14
27,0.0
28,0.0
29,0.0
30,0.0
31,0.0
32,0.0
33,0.0
34,0.0
35,0.0
36,0.0
37,5.35814027908909e-11
38,0.0
39,0.0
40,0.0
41,0.0
42,0.0
43,9.372599378298465e-12
44,1.2496799171064619e-11
45,0.0
46,0.0
47,0.0
48,0.0
2,1, 7, 1, 0, 2, 0.00,15.00,Saturday
7,13.95
8,101600.0
9,4.75
10,272.5
11,18.303237882247736
12,18.200904929100226
13,-1.6408794771021598
14,-1.6359292108365397
15,-1.3774768121489434
16,-1.3774768121489434
17,-1.5125235584380545
18,-1.5125235584380545
19,-1.3774768121489434
20,-1.3774768121489434
21,-1.5125235584380552
22,-1.5125235584380552
23,0.0
24,0.00013004963298393518
25,0.00013005000998490406
26,0.0
27,0.0
28,0.00013005184197458576
29,0.0001300522229482574
30,0.0
31,0.0
32,0.0
33,0.0
34,0.0
35,0.0
36,0.0
37,0.7026752795016156
38,0.0
39,0.0
40,0.0
41,0.6861689221963962
42,0.0
43,0.11883136691602586
44,0.15844182255470116
45,0.0
46,0.11879166147260102
47,0.15838888196346804
48,0.0
2,1, 7, 1, 0, 2,15.00,30.00,Saturday
7,13.7
8,101600.0
9,4.699999999999999
10,275.0
11,18.1642458068884
12,18.065989609729947
13,-1.5554676642137677
14,-1.550798389094329
15,-1.2176551189753566
16,-1.2176551189753566
17,-1.4823627535352166
18,-1.4823627535352166
19,-1.2176551189753566
20,-1.2176551189753566
21,-1.4823627535352166
22,-1.4823627535352166
23,0.0
24,0.00020121470390789005
25,0.00020122135761585229
26,0.0
27,0.0
28,0.00020121789741786518
29,0.0002012246185540848
30,0.0
31,0.0
32,0.0
33,0.0
34,0.0
35,0.0
36,0.0
37,1.115859594660526
38,0.0
39,0.0
40,0.0
41,1.0913173083535128
42,0.0
43,0.18392520971735582
44,0.24523361295647442
45,0.0
46,0.18386609274503854
47,0.24515479032671805
48,0.0
2,1, 7, 1, 0, 2,30.00,45.00,Saturday
7,13.45
8,101600.0
9,4.6499999999999995
10,277.5
11,18.042579904970832
12,17.94730849166129
13,-1.471694237294989
14,-1.4671925968097195
15,-1.063418130500371
16,-1.063418130500371
17,-1.452473544098067
18,-1.452473544098067
19,-1.063418130500371
20,-1.063418130500371
21,-1.4524735440980674
22,-1.4524735440980674
23,0.0
24,0.0002582614080613598
25,0.00025813320452263875
26,0.0
27,0.0
28,0.00025826012990998713
29,0.0002581425364209571
30,0.0
31,0.0
32,0.0
33,0.0
34,0.0
35,0.0
36,0.0
37,1.474643331025824
38,0.0
39,0.0
40,0.0
41,1.4440452404131563
42,0.0
43,0.23617107400627785
44,0.3148947653417038
45,0.0
46,0.23609263658268237
47,0.3147901821102432
48,0.0
2,1, 7, 1, 0, 2,45.00,60.00,Saturday
7,13.2
8,101600.0
9,4.6
10,280.0
11,17.93269190321137
12,17.840996021560162
13,-1.391887505934835
14,-1.387479950276807
15,-0.914693744298069
16,-0.914693744298069
17,-1.4228569355747733
18,-1.4228569355747733
19,-0.914693744298069
20,-0.914693744298069
21,-1.4228569355747738
22,-1.4228569355747738
23,0.0
24,0.0003071641919362235
25,0.0003065264204213726
26,0.0
27,0.0
28,0.0003071395601690894
29,0.00030656074378611304
30,0.0
31,0.0
32,0.0
33,0.0
34,0.0
35,0.0
36,0.0
37,1.8089185541945
38,0.0
39,0.0
40,0.0
41,1.7737285181107132
42,0.0
43,0.28102290305872596
44,0.37469720407830126
45,0.0
46,0.28091184889221826
47,0.374549131856291
48,0.0
2,1, 7, 1, 0, 3, 0.00,15.00,Saturday
7,12.924999999999999
8,101575.0
9,4.5249999999999995
10,280.0
11,17.83591286888265
12,17.748031154117715
13,-1.3650833655347678
14,-1.360876257682205
15,-0.8858862936817159
16,-0.8858862936817159
17,-1.3780453457271127
18,-1.3780453457271127
19,-0.8858862936817159
20,-0.8858862936817159
21,-1.3780453457271131
22,-1.3780453457271131
23,0.0
24,0.0003002803756170668
25,0.00030028037004738915
26,0.0
27,0.0
28,0.0003002847256301533
29,0.00030028472102935916
30,0.0
31,0.0
32,0.0
33,0.0
34,0.0
35,0.0
36,0.0
37,1.8362394183254362
38,0.0
39,0.0
40,0.0
41,1.8034056912476337
42,0.0
43,0.2748904976449393
44,0.3665206635265857
45,0.0
46,0.2748114591016299
47,0.3664152788021732
48,0.0
2,1, 7, 1, 0, 3,15.00,30.00,Saturday
7,12.649999999999999
8,101550.0
9,4.449999999999999
10,280.0
11,17.742851669367482
12,17.658628720717314
13,-1.3396649076513654
14,-1.3356320874381526
15,-0.8575139685220894
16,-0.8575139685220894
17,-1.3339106177010271
18,-1.3339106177010271
19,-0.8575139685220894
20,-0.8575139685220894
21,-1.333910617701028
22,-1.333910617701028
23,0.0
24,0.00029374813601392704
25,0.00029374812432862463
26,0.0
27,0.0
28,0.00029375222783289983
29,0.00029375221793703765
30,0.0
31,0.0
32,0.0
33,0.0
34,0.0
35,0.0
36,0.0
37,1.864132142828768
38,0.0
39,0.0
40,0.0
41,1.8333296262820227
42,0.0
43,0.2690769655619848
44,0.35876928741597974
45,0.0
46,0.2690028070852543
47,0.35867040944700573
48,0.0
2,1, 7, 1, 0, 3,30.00,45.00,Saturday
7,12.375
8,101525.0
9,4.375
10,280.0
11,17.64902674435984
12,17.568208516747152
13,-1.3147712769021827
14,-1.310905759350203
15,-0.8295780710569012
16,-0.8295780710569012
17,-1.2904547771996233
18,-1.2904547771996233
19,-0.8295780710569012
20,-0.8295780710569012
21,-1.2904547771996238
22,-1.2904547771996238
23,0.0
24,0.00028725151071801826
25,0.0002872514873561629
26,0.0
27,0.0
28,0.0002872553580135164
29,0.0002872553378331024
30,0.0
31,0.0
32,0.0
33,0.0
34,0.0
35,0.0
36,0.0
37,1.8890615459504239
38,0.0
39,0.0
40,0.0
41,1.8601388234230654
42,0.0
43,0.2632889101000911
44,0.3510518801334548
45,0.0
46,0.2632192635104503
47,0.3509590180139337
48,0.0
2,1, 7, 1, 0, 3,45.00,60.00,Saturday
7,12.1
8,101500.0
9,4.3
10,280.0
11,17.555199716389044
12,17.477585085999817
13,-1.290213608027243
14,-1.286503745253932
15,-0.8020799028099065
16,-0.8020799028099065
17,-1.2476798488154095
18,-1.2476798488154095
19,-0.8020799028099065
20,-0.8020799028099065
21,-1.24767984881541
22,-1.24767984881541
23,0.0
24,0.0002807911106534703
25,0.0002807910659440197
26,0.0
27,0.0
28,0.0002807947306522871
29,0.00028079469141659364
30,0.0
31,0.0
32,0.0
33,0.0
34,0.0
35,0.0
36,0.0
37,1.9113352410242594
38,0.0
39,0.0
40,0.0
41,1.8841657374659608
42,0.0
43,0.2575275344439454
44,0.3433700459252605
45,0.0
46,0.2574620973901823
47,0.343282796520243
48,0.0
2,1, 7, 1, 0, 4, 0.00,15.00,Saturday
7,11.85
8,101500.0
9,4.25
10,282.5
11,17.4470007977675
12,17.37236006297487
13,-1.2225962424772554
14,-1.2190263409917006
15,-0.6753974618729282
16,-0.6753974618729282
17,-1.2200728343510958
18,-1.2200728343510958
19,-0.6753974618729282
20,-0.6753974618729282
21,-1.2200728343510963
22,-1.2200728343510963
23,0.0
24,0.00031961825216626414
25,0.0003196187476870096
26,0.0
27,0.0
28,0.00031962240380142777
29,0.0003196225375680993
30,0.0
31,0.0
32,0.0
33,0.0
34,0.0
35,0.0
36,0.0
37,2.234094446477253
38,0.0
39,0.0
40,0.0
41,2.204329541796487
42,0.0
43,0.2932814784568786
44,0.3910419712758381
45,0.0
46,0.29320995670796945
47,0.3909466089439593
48,0.0
2,1, 7, 1, 0, 4,15.00,30.00,Saturday
7,11.6
8,101500.0
9,4.199999999999999
10,285.0
11,17.333502938752304
12,17.26152709878497
13,-1.156817664042801
14,-1.1533775642350528
15,-0.5537747761147058
16,-0.5537747761147058
17,-1.192745671631674
18,-1.192745671631674
19,-0.5537747761147058
20,-0.5537747761147058
21,-1.1927456716316742
22,-1.1927456716316742
23,0.0
24,0.000354221687541938
25,0.00035422859895806836
26,0.0
27,0.0
28,0.00035422623189581203
29,0.0003542325400519832
30,0.0
31,0.0
32,0.0
33,0.0
34,0.0
35,0.0
36,0.0
37,2.538527829605685
38,0.0
39,0.0
40,0.0
41,2.506692441132633
42,0.0
43,0.3251878390627618
44,0.4335837854170157
45,0.0
46,0.32511143437666173
47,0.4334819125022156
48,0.0
2,1, 7, 1, 0, 4,30.00,45.00,Saturday
7,11.35
8,101500.0
9,4.1499999999999995
10,287.5
11,17.222277211547866
12,17.152877411585216
13,-1.0932544080149411
14,-1.0899298884873014
15,-0.4371372621322759
16,-0.4371372621322759
17,-1.1656993656860686
18,-1.1656993656860686
19,-0.4371372621322759
20,-0.4371372621322759
21,-1.1656993656860692
22,-1.1656993656860692
23,0.0
24,0.000385384674276118
25,0.00038538464700243346
26,0.0
27,0.0
28,0.0003853891389832161
29,0.000385389114454249
30,0.0
31,0.0
32,0.0
33,0.0
34,0.0
35,0.0
36,0.0
37,2.8311332363259636
38,0.0
39,0.0
40,0.0
41,2.7977067230001817
42,0.0
43,0.3539682627021387
44,0.4719576836028516
45,0.0
46,0.35388776160067414
47,0.4718503488008989
48,0.0
2,1, 7, 1, 0, 4,45.00,60.00,Saturday
7,11.1
8,101500.0
9,4.1
10,290.0
11,17.11255203844241
12,17.04573794225255
13,-1.0322239116956433
14,-1.0290230257847377
15,-0.32540997761311785
16,-0.32540997761311785
17,-1.1389349216459117
18,-1.1389349216459117
19,-0.32540997761311785
20,-0.32540997761311785
21,-1.1389349216459124
22,-1.1389349216459124
23,0.0
24,0.00041363896923027495
25,0.0004136100757344534
26,0.0
27,0.0
28,0.0004136508150308427
29,0.00041360738213047676
30,0.0
31,0.0
32,0.0
33,0.0
34,0.0
35,0.0
36,0.0
37,3.1139570357954995
38,0.0
39,0.0
40,0.0
41,3.0794415759389504
42,0.0
43,0.38010669528108015
44,0.5068089270414402
45,0.0
46,0.38003008109557634
47,0.5067067747941018
48,0.0
2,1, 7, 1, 0, 5, 0.00,15.00,Saturday
7,11.274999999999999
8,101500.0
9,4.1
10,290.0
11,17.02236042373565
12,16.958219718357235
13,-1.0169625629366619
14,-1.0139012148133122
15,-0.3252037463463598
16,-0.3252037463463598
17,-1.1382131122122585
18,-1.1382131122122585
19,-0.3252037463463598
20,-0.3252037463463598
21,-1.1382131122122592
22,-1.1382131122122592
23,0.0
24,0.0004137828825981161
25,0.00041364090531948935
26,0.0
27,0.0
28,0.0004138091233261367
29,0.00041362321386727427
30,0.0
31,0.0
32,0.0
33,0.0
34,0.0
35,0.0
36,0.0
37,2.9758235817577217
38,0.0
39,0.0
40,0.0
41,2.9427999168677865
42,0.0
43,0.3798925599292358
44,0.5065234132389811
45,0.0
46,0.3798326705286949
47,0.5064435607049266
48,0.0
2,1, 7, 1, 0, 5,15.00,30.00,Saturday
7,11.45
8,101500.0
9,4.1
10,290.0
11,16.94013175287947
12,16.878751023598376
13,-1.0027743813788585
14,-0.9998780892965946
15,-0.32499813040345477
16,-0.32499813040345477
17,-1.137493456412091
18,-1.137493456412091
19,-0.32499813040345477
20,-0.32499813040345477
21,-1.1374934564120915
22,-1.1374934564120915
23,0.0
24,0.00041401090585307227
25,0.00041358319390016207
26,0.0
27,0.0
28,0.0004140653150021157
29,0.00041353653093049455
30,0.0
31,0.0
32,0.0
33,0.0
34,0.0
35,0.0
36,0.0
37,2.8424626983459254
38,0.0
39,0.0
40,0.0
41,2.811052797397722
42,0.0
43,0.3797655940592518
44,0.5063541254123357
45,0.0
46,0.37973513384260704
47,0.5063135117901427
48,0.0
2,1, 7, 1, 0, 5,30.00,45.00,Saturday
7,11.625000000000002
8,101500.0
9,4.1
10,290.0
11,16.857127034775242
12,16.79845939946341
13,-0.9885650930883141
14,-0.985718697978257
15,-0.32479313693587475
16,-0.32479313693587475
17,-1.1367759792755612
18,-1.1367759792755612
19,-0.32479313693587475
20,-0.32479313693587475
21,-1.1367759792755616
22,-1.1367759792755616
23,0.0
24,0.00041388436609886015
25,0.00041388436023311466
26,0.0
27,0.0
28,0.00041388841464913
29,0.00041388840606716563
30,0.0
31,0.0
32,0.0
33,0.0
34,0.0
35,0.0
36,0.0
37,2.706397708616486
38,0.0
39,0.0
40,0.0
41,2.6760771539159824
42,0.0
43,0.3793120167099633
44,0.5057493556132844
45,0.0
46,0.37923898948733115
47,0.5056519859831082
48,0.0
2,1, 7, 1, 0, 5,45.00,60.00,Saturday
7,11.8
8,101500.0
9,4.1
10,290.0
11,16.774833943521923
12,16.718733632542293
13,-0.9748159047103876
14,-0.9720937233427188
15,-0.3245887731886718
16,-0.3245887731886718
17,-1.1360607061603507
18,-1.1360607061603507
19,-0.3245887731886718
20,-0.3245887731886718
21,-1.1360607061603512
22,-1.1360607061603512
23,0.0
24,0.00041397012949536733
25,0.0004139700946848865
26,0.0
27,0.0
28,0.0004139739899884204
29,0.00041397393877846343
30,0.0
31,0.0
32,0.0
33,0.0
34,0.0
35,0.0
36,0.0
37,2.572267244183963
38,0.0
39,0.0
40,0.0
41,2.543283964638886
42,0.0
43,0.37905375798009894
44,0.5054050106401319
45,0.0
46,0.37898394229916715
47,0.5053119230655562
48,0.0
2,1, 7, 1, 0, 6, 0.00,15.00,Saturday
7,12.000000000000002
8,101500.0
9,4.1
10,292.5
11,16.688083016841464
12,16.63445389314382
13,-0.9090240724539964
14,-0.9064077413906519
15,-0.22298362871341687
16,-0.22298362871341687
17,-1.1351893825410306
18,-1.1351893825410306
19,-0.22298362871341687
20,-0.22298362871341687
21,-1.1351893825410313
22,-1.1351893825410313
23,0.0
24,0.00044710087284081137
25,0.00044694320866573784
26,0.0
27,0.0
28,0.0004470997815071256
29,0.0004469522948090783
30,0.0
31,0.0
32,0.0
33,0.0
34,0.0
35,0.0
36,0.0
37,2.616187332830222
38,0.0
39,0.0
40,0.0
41,2.5862532577168786
42,0.0
43,0.4089870162346199
44,0.5453160216461599
45,0.0
46,0.4089103392904487
47,0.5452137857205982
48,0.0
2,1, 7, 1, 0, 6,15.00,30.00,Saturday
7,12.2
8,101500.0
9,4.1
10,295.0
11,16.60291470698715
12,16.55166542423729
13,-0.8429705582432393
14,-0.8404718418265897
15,-0.12153424154160605
16,-0.12153424154160605
17,-1.134319587721656
18,-1.134319587721656
19,-0.12153424154160605
20,-0.12153424154160605
21,-1.134319587721657
22,-1.134319587721657
23,0.0
24,0.0004788337937800494
25,0.00047883097345012224
26,0.0
27,0.0
28,0.0004788377282901253
29,0.00047883510793590744
30,0.0
31,0.0
32,0.0
33,0.0
34,0.0
35,0.0
36,0.0
37,2.6296189631377924
38,0.0
39,0.0
40,0.0
41,2.599031939000318
42,0.0
43,0.43758539807000274
44,0.5834471974266703
45,0.0
46,0.43751159273842094
47,0.5833487903178945
48,0.0
2,1, 7, 1, 0, 6,30.00,45.00,Saturday
7,12.399999999999999
8,101500.0
9,4.1
10,297.5
11,16.523583929617356
12,16.474787344228453
13,-0.7773101647190942
14,-0.7749176267955987
15,-0.020240202446821662
16,-0.020240202446821662
17,-1.13345133702201
18,-1.13345133702201
19,-0.020240202446821662
20,-0.020240202446821662
21,-1.1334513370220105
22,-1.1334513370220105
23,0.0
24,0.0005095660873484739
25,0.0005095660676303869
26,0.0
27,0.0
28,0.0005095701682639519
29,0.0005095701508034878
30,0.0
31,0.0
32,0.0
33,0.0
34,0.0
35,0.0
36,0.0
37,2.619045465284633
38,0.0
39,0.0
40,0.0
41,2.5880736190548967
42,0.0
43,0.46522253843331185
44,0.6202967179110824
45,0.0
46,0.4651478917179691
47,0.6201971889572921
48,0.0
2,1, 7, 1, 0, 6,45.00,60.00,Saturday
7,12.6
8,101500.0
9,4.1
10,300.0
11,16.45070669485919
12,16.40468361349954
13,-0.7121309747738664
14,-0.709847607754556
15,0.08089890328961169
16,0.08089890328961169
17,-1.1325846460545632
18,-1.1325846460545632
19,0.08089890328961169
20,0.08089890328961169
21,-1.1325846460545639
22,-1.1325846460545639
23,0.0
24,0.0005393545634064223
25,0.0005393550701783635
26,0.0
27,0.0
28,0.0005393581984205097
29,0.000539359627671015
30,0.0
31,0.0
32,0.0
33,0.0
34,0.0
35,0.0
36,0.0
37,2.5869176136093817
38,0.0
39,0.0
40,0.0
41,2.5560163802163665
42,0.0
43,0.4919555884566789
44,0.6559407846089053
45,0.0
46,0.49188071919954945
47,0.6558409589327326
48,0.0
2,1, 7, 1, 0, 7, 0.00,15.00,Saturday
7,12.774999999999999
8,101500.0
9,4.1
10,300.0
11,16.389479475377314
12,16.346797912231178
13,-0.6997317209976577
14,-0.6975717535601347
15,0.08084853971133447
16,0.08084853971133447
17,-1.131879555958682
18,-1.131879555958682
19,0.08084853971133447
20,0.08084853971133447
21,-1.1318795559586827
22,-1.1318795559586827
23,0.0
24,0.0005394578787025099
25,0.0005394739952120879
26,0.0
27,0.0
28,0.0005394582453522182
29,0.0005394813520920194
30,0.0
31,0.0
32,0.0
33,0.0
34,0.0
35,0.0
36,0.0
37,2.427201856914656
38,0.0
39,0.0
40,0.0
41,2.398541885899033
42,0.0
43,0.49164555378444297
44,0.655527405045924
45,0.0
46,0.49157341079777
47,0.6554312143970267
48,0.0
2,1, 7, 1, 0, 7,15.00,30.00,Saturday
7,12.95
8,101500.0
9,4.1
10,300.0
11,16.335800136645638
12,16.297443487692025
13,-0.6879480547678631
14,-0.6859329682529667
15,0.08079834410090397
16,0.08079834410090397
17,-1.131176817412655
18,-1.131176817412655
19,0.08079834410090397
20,0.08079834410090397
21,-1.1311768174126555
22,-1.1311768174126555
23,0.0
24,0.0005395368691503391
25,0.0005396151257211146
26,0.0
27,0.0
28,0.0005395307914132431
29,0.0005396283901981239
30,0.0
31,0.0
32,0.0
33,0.0
34,0.0
35,0.0
36,0.0
37,2.272583807311951
38,0.0
39,0.0
40,0.0
41,2.2468131207712134
42,0.0
43,0.49132623505545936
44,0.6551016467406124
45,0.0
46,0.4912555985185312
47,0.6550074646913749
48,0.0
2,1, 7, 1, 0, 7,30.00,45.00,Saturday
7,13.125000000000002
8,101500.0
9,4.1
10,300.0
11,16.291706539724473
12,16.259057494030866
13,-0.6765028700653847
14,-0.6746728568448739
15,0.08074831844008691
16,0.08074831844008691
17,-1.1304764581612161
18,-1.1304764581612161
19,0.08074831844008691
20,0.08074831844008691
21,-1.1304764581612168
22,-1.1304764581612168
23,0.0
24,0.0005395698172791912
25,0.0005398007173622174
26,0.0
27,0.0
28,0.0005395536711788153
29,0.0005398233713107102
30,0.0
31,0.0
32,0.0
33,0.0
34,0.0
35,0.0
36,0.0
37,2.1243588215019242
38,0.0
39,0.0
40,0.0
41,2.1023935659893986
42,0.0
43,0.49098147480110377
44,0.6546419664014717
45,0.0
46,0.49091139968134045
47,0.6545485329084539
48,0.0
2,1, 7, 1, 0, 7,45.00,60.00,Saturday
7,13.3
8,101500.0
9,4.1
10,300.0
11,16.257891414847965
12,16.233570815521233
13,-0.665418949158417
14,-0.6638339159131852
15,0.08069846473557439
16,0.08069846473557439
17,-1.1297785062980412
18,-1.1297785062980412
19,0.08069846473557439
20,0.08069846473557439
21,-1.1297785062980419
22,-1.1297785062980419
23,0.0
24,0.0005395260339884122
25,0.0005400611281342213
26,0.0
27,0.0
28,0.0005394967070578178
29,0.0005400960615133308
30,0.0
31,0.0
32,0.0
33,0.0
34,0.0
35,0.0
36,0.0
37,1.9829056904054663
38,0.0
39,0.0
40,0.0
41,1.9664947944594735
42,0.0
43,0.49058464594861934
44,0.6541128612648258
45,0.0
46,0.4905167533525742
47,0.6540223378034323
48,0.0
2,1, 7, 1, 0, 8, 0.00,15.00,Saturday
7,13.725000000000001
8,101500.0
9,4.324999999999999
10,300.0
11,16.238676482878603
12,16.21999343689316
13,-0.7022541804197369
14,-0.7011123819477993
15,0.08966372731651817
16,0.08966372731651817
17,-1.2552921824312542
18,-1.2552921824312542
19,0.08966372731651817
20,0.08966372731651817
21,-1.2552921824312546
22,-1.2552921824312546
23,0.0
24,0.000578889923326437
25,0.0005788899236713501
26,0.0
27,0.0
28,0.0005788920579263293
29,0.0005788920631485466
30,0.0
31,0.0
32,0.0
33,0.0
34,0.0
35,0.0
36,0.0
37,1.805386905478386
38,0.0
39,0.0
40,0.0
41,1.7919748704900438
42,0.0
43,0.5255643321390033
44,0.7007524428520044
45,0.0
46,0.5255323379475371
47,0.7007097839300495
48,0.0
2,1, 7, 1, 0, 8,15.00,30.00,Saturday
7,14.15
8,101500.0
9,4.55
10,300.0
11,16.228097589788252
12,16.217335444623142
13,-0.7423725197574137
14,-0.7415092483717101
15,0.09908748834578522
16,0.09908748834578522
17,-1.3872248368409925
18,-1.3872248368409925
19,0.09908748834578522
20,0.09908748834578522
21,-1.3872248368409932
22,-1.3872248368409932
23,0.0
24,0.000618608646144988
25,0.0006186546043867165
26,0.0
27,0.0
28,0.0006186188498364952
29,0.0006186478338323667
30,0.0
31,0.0
32,0.0
33,0.0
34,0.0
35,0.0
36,0.0
37,1.592592851616984
38,0.0
39,0.0
40,0.0
41,1.5843711933139293
42,0.0
43,0.5607735148295694
44,0.7476980197727592
45,0.0
46,0.5607619074833118
47,0.7476825433110824
48,0.0
2,1, 7, 1, 0, 8,30.00,45.00,Saturday
7,14.575
8,101500.0
9,4.775
10,300.0
11,16.223923911954458
12,16.22714643537022
13,-0.7860751051741938
14,-0.7855677771031351
15,0.10896797304684658
16,0.10896797304684658
17,-1.5255516226558516
18,-1.5255516226558516
19,0.10896797304684658
20,0.10896797304684658
21,-1.525551622655852
22,-1.525551622655852
23,0.0
24,0.0006589966592002683
25,0.000658996738915626
26,0.0
27,0.0
28,0.0006589977215848603
29,0.000658997796003308
30,0.0
31,0.0
32,0.0
33,0.0
34,0.0
35,0.0
36,0.0
37,1.3442034023787077
38,0.0
39,0.0
40,0.0
41,1.3468325759553483
42,0.0
43,0.5964942971207543
44,0.7953257294943391
45,0.0
46,0.5965019003578914
47,0.7953358671438552
48,0.0
2,1, 7, 1, 0, 8,45.00,60.00,Saturday
7,15.0
8,101500.0
9,5.0
10,300.0
11,16.230223267123538
12,16.251714854797957
13,-0.8331055900249246
14,-0.8332580504069618
15,0.11930345943739676
16,0.11930345943739676
17,-1.670248432123554
18,-1.670248432123554
19,0.11930345943739676
20,0.11930345943739676
21,-1.6702484321235544
22,-1.6702484321235544
23,0.0
24,0.0006999658847778819
25,0.0006999658875903314
26,0.0
27,0.0
28,0.0006999655511863704
29,0.0006999655540474637
30,0.0
31,0.0
32,0.0
33,0.0
34,0.0
35,0.0
36,0.0
37,1.0636547096474995
38,0.0
39,0.0
40,0.0
41,1.0822358847400408
42,0.0
43,0.6326560647650007
44,0.8435414196866676
45,0.0
46,0.632702748158233
47,0.8436036642109773
48,0.0
2,1, 7, 1, 0, 9, 0.00,15.00,Saturday
7,15.4
8,101500.0
9,5.2
10,302.5
11,16.247117393625906
12,16.289835341124007
13,-0.7983317034428699
14,-0.7993452108361785
15,0.2469779865651958
16,0.2469779865651958
17,-1.7664295126075955
18,-1.7664295126075955
19,0.2469779865651958
20,0.2469779865651958
21,-1.7664295126075964
22,-1.7664295126075964
23,0.0
24,0.0007565554280377191
25,0.0007568745674131406
26,0.0
27,0.0
28,0.0007565503976424856
29,0.0007568748288427058
30,0.0
31,0.0
32,0.0
33,0.0
34,0.0
35,0.0
36,0.0
37,0.7905377175860558
38,0.0
39,0.0
40,0.0
41,0.8303969763932292
42,0.0
43,0.6828964331600021
44,0.9105285775466695
45,0.0
46,0.6829926934040232
47,0.9106569245386976
48,0.0
2,1, 7, 1, 0, 9,15.00,30.00,Saturday
7,15.8
8,101500.0
9,5.4
10,305.0
11,16.275831983852594
12,16.344291894885846
13,-0.7550452029628023
14,-0.7570754798947851
15,0.39317519670776724
16,0.39317519670776724
17,-1.8618001961750155
18,-1.8618001961750155
19,0.39317519670776724
20,0.39317519670776724
21,-1.861800196175016
22,-1.861800196175016
23,0.0
24,0.0008156160897096415
25,0.000815659388882915
26,0.0
27,0.0
28,0.0008156103870900843
29,0.0008156549167251802
30,0.0
31,0.0
32,0.0
33,0.0
34,0.0
35,0.0
36,0.0
37,0.47805339753491966
38,0.0
39,0.0
40,0.0
41,0.5468290891782979
42,0.0
43,0.7352605049330121
44,0.9803473399106828
45,0.0
46,0.735429278331864
47,0.980572371109152
48,0.0
2,1, 7, 1, 0, 9,30.00,45.00,Saturday
7,16.200000000000003
8,101500.0
9,5.6
10,307.5
11,16.319672040228422
12,16.41633453185417
13,-0.7018041299101953
14,-0.7050704486681904
15,0.5588668597436466
16,0.5588668597436466
17,-1.9560340091027624
18,-1.9560340091027624
19,0.5588668597436466
20,0.5588668597436466
21,-1.956034009102763
22,-1.956034009102763
23,0.0
24,0.000876728709888098
25,0.0008767353271706608
26,0.0
27,0.0
28,0.000876719864111991
29,0.0008767267584512479
30,0.0
31,0.0
32,0.0
33,0.0
34,0.0
35,0.0
36,0.0
37,0.129060696243743
38,0.0
39,0.0
40,0.0
41,0.23330431692281006
42,0.0
43,0.7893781772034081
44,1.0525042362712107
45,0.0
46,0.7896338059019411
47,1.0528450745359215
48,0.0
2,1, 7, 1, 0, 9,45.00,60.00,Saturday
7,16.6
8,101500.0
9,5.8
10,310.0
11,16.372331767614725
12,16.499655317520226
13,-0.6383113098498415
14,-0.6429396011249294
15,0.7450205073856322
16,0.7450205073856322
17,-2.0488063953104882
18,-2.0488063953104882
19,0.7450205073856322
20,0.7450205073856322
21,-2.0488063953104887
22,-2.0488063953104887
23,0.0
24,0.0009399942848161256
25,0.0009399952899756368
26,0.0
27,0.0
28,0.0009399811616793996
29,0.0009399822206717233
30,0.0
31,0.0
32,0.0
33,0.0
34,0.0
35,0.2628833779932719
36,0.0
37,0.0
38,0.0
39,0.11586412625307757
40,0.0
41,0.0
42,0.0
43,0.845324054875624
44,1.1270987398341654
45,0.0
46,0.8456839963864696
47,1.127578661848626
48,0.0
2,1, 7, 1, 0,10, 0.00,15.00,Saturday
7,17.025000000000002
8,101500.0
9,6.0249999999999995
10,310.0
11,16.428967395073496
12,16.58914003566826
13,-0.6717457343877823
14,-0.6778575691175966
15,0.8028077420260111
16,0.8028077420260111
17,-2.20772129057153
18,-2.20772129057153
19,0.8028077420260111
20,0.8028077420260111
21,-2.207721290571531
22,-2.207721290571531
23,0.0
24,0.0009880899454743457
25,0.0009880908483471192
26,0.0
27,0.0
28,0.0009880719070213346
29,0.0009880728675605967
30,0.0
31,0.0
32,0.0
33,0.0
34,0.0
35,0.7223741506963884
36,0.0
37,0.0
38,0.0
39,0.5282399335497919
40,0.0
41,0.0
42,0.0
43,0.8874419575064701
44,1.1832559433419603
45,0.0
46,0.8879166111944533
47,1.1838888149259377
48,0.0
2,1, 7, 1, 0,10,15.00,30.00,Saturday
7,17.450000000000003
8,101500.0
9,6.25
10,310.0
11,16.503844358148818
12,16.699445082715634
13,-0.7071762104911266
14,-0.7148849225843563