Program Version,EnergyPlus, Version 22.2.0-c249759bad, YMD=2025.11.01 17:29
1,5,Environment Title[],Latitude[deg],Longitude[deg],Time Zone[],Elevation[m]
2,8,Day of Simulation[],Month[],Day of Month[],DST Indicator[1=yes 0=no],Hour[],StartMinute[],EndMinute[],DayType
3,5,Cumulative Day of Simulation[],Month[],Day of Month[],DST Indicator[1=yes 0=no],DayType  ! When Daily Report Variables Requested
4,2,Cumulative Days of Simulation[],Month[]  ! When Monthly Report Variables Requested
5,1,Cumulative Days of Simulation[] ! When Run Period Report Variables Requested
6,1,Calendar Year of Simulation[] ! When Annual Report Variables Requested
7,1,Environment,Site Outdoor Air Drybulb Temperature [C] !TimeStep
8,1,Environment,Site Wind Speed [m/s] !TimeStep
9,1,Environment,Site Wind Direction [deg] !TimeStep
10,1,BLOCK `ROOM1` STOREY 0,Zone Mean Air Temperature [C] !TimeStep
11,1,BLOCK `ROOM2` STOREY 0,Zone Mean Air Temperature [C] !TimeStep
12,1,BLOCK `ROOM1` STOREY 0,AFN Node Total Pressure [Pa] !TimeStep
13,1,BLOCK `ROOM2` STOREY 0,AFN Node Total Pressure [Pa] !TimeStep
14,1,AFN_PRESSURE_COEFFICIENT_VALUES_WEST_ROOM1,AFN Node Total Pressure [Pa] !TimeStep
15,1,AFN_PRESSURE_COEFFICIENT_VALUES_WEST_ROOM1,AFN Node Wind Pressure [Pa] !TimeStep
16,1,AFN_PRESSURE_COEFFICIENT_VALUES_EAST_ROOM2,AFN Node Total Pressure [Pa] !TimeStep
17,1,AFN_PRESSURE_COEFFICIENT_VALUES_EAST_ROOM2,AFN Node Wind Pressure [Pa] !TimeStep
18,1,DOOR__BLOCK `ROOM1` STOREY 0 WALL 0002,AFN Linkage Node 1 to Node 2 Volume Flow Rate [m3/s] !TimeStep
19,1,DOOR__BLOCK `ROOM1` STOREY 0 WALL 0002,AFN Linkage Node 2 to Node 1 Volume Flow Rate [m3/s] !TimeStep
20,1,DOOR__BLOCK `ROOM1` STOREY 0 WALL 0004_1,AFN Linkage Node 1 to Node 2 Volume Flow Rate [m3/s] !TimeStep
21,1,DOOR__BLOCK `ROOM1` STOREY 0 WALL 0004_1,AFN Linkage Node 2 to Node 1 Volume Flow Rate [m3/s] !TimeStep
22,1,DOOR__BLOCK `ROOM2` STOREY 0 WALL 0004,AFN Linkage Node 1 to Node 2 Volume Flow Rate [m3/s] !TimeStep
23,1,DOOR__BLOCK `ROOM2` STOREY 0 WALL 0004,AFN Linkage Node 2 to Node 1 Volume Flow Rate [m3/s] !TimeStep
24,1,DOOR__BLOCK `ROOM2` STOREY 0 WALL 0002_1,AFN Linkage Node 1 to Node 2 Volume Flow Rate [m3/s] !TimeStep
25,1,DOOR__BLOCK `ROOM2` STOREY 0 WALL 0002_1,AFN Linkage Node 2 to Node 1 Volume Flow Rate [m3/s] !TimeStep
26,1,BLOCK `ROOM1` STOREY 0,AFN Zone Ventilation Sensible Heat Gain Rate [W] !TimeStep
27,1,BLOCK `ROOM1` STOREY 0,AFN Zone Mixing Sensible Heat Gain Rate [W] !TimeStep
28,1,BLOCK `ROOM1` STOREY 0,AFN Zone Ventilation Sensible Heat Loss Rate [W] !TimeStep
29,1,BLOCK `ROOM1` STOREY 0,AFN Zone Mixing Sensible Heat Loss Rate [W] !TimeStep
30,1,BLOCK `ROOM2` STOREY 0,AFN Zone Ventilation Sensible Heat Gain Rate [W] !TimeStep
31,1,BLOCK `ROOM2` STOREY 0,AFN Zone Mixing Sensible Heat Gain Rate [W] !TimeStep
32,1,BLOCK `ROOM2` STOREY 0,AFN Zone Ventilation Sensible Heat Loss Rate [W] !TimeStep
33,1,BLOCK `ROOM2` STOREY 0,AFN Zone Mixing Sensible Heat Loss Rate [W] !TimeStep
34,1,BLOCK `ROOM1` STOREY 0,AFN Zone Ventilation Volume [m3] !TimeStep
35,1,BLOCK `ROOM1` STOREY 0,AFN Zone Ventilation Air Change Rate [ach] !TimeStep
36,1,BLOCK `ROOM1` STOREY 0,AFN Zone Mixing Volume [m3] !TimeStep
37,1,BLOCK `ROOM2` STOREY 0,AFN Zone Ventilation Volume [m3] !TimeStep
38,1,BLOCK `ROOM2` STOREY 0,AFN Zone Ventilation Air Change Rate [ach] !TimeStep
39,1,BLOCK `ROOM2` STOREY 0,AFN Zone Mixing Volume [m3] !TimeStep
End of Data Dictionary
1,JULY_1,  37.62,-122.40,  -8.00,   2.00
2,1, 7, 1, 0, 1, 0.00,15.00,Saturday
7,13.150000000000002
8,6.45
9,285.0
10,13.345879529794814
11,13.281214937991477
12,0.6304108102085026
13,0.09940431866855072
14,2.6948108710171903
15,2.6948108710171903
16,-1.9712042482440553
17,-1.9712042482440553
18,0.0
19,0.11509662644524404
20,0.05754809218255605
21,0.0
22,0.11509662641812846
23,0.0
24,0.0
25,0.05754809218255605
26,0.0
27,0.0
28,28.0160995665569
29,0.0
30,0.0
31,9.247195689589264
32,0.0
33,0.0
34,103.6571839806311
35,138.20957864084147
36,0.0
37,0.0
38,0.0
39,103.60407546396681
2,1, 7, 1, 0, 1,15.00,30.00,Saturday
7,13.5
8,5.9
9,280.0
10,13.652286424569981
11,13.642255962835574
12,0.5835093517911287
13,0.1534354476610632
14,2.335960196356445
15,2.335960196356445
16,-1.6129248974842116
17,-1.6129248974842116
18,0.0
19,0.10593322526293299
20,0.052965730810734024
21,0.0
22,0.10593322523390591
23,0.0
24,0.0
25,0.05296573081073483
26,0.0
27,0.0
28,20.0327230645848
29,0.0
30,0.0
31,7.2978476144278535
32,0.0
33,5.977843263746129
34,95.42993031186515
35,127.23990708248687
36,0.0
37,0.0
38,0.0
39,95.40875009806378
2,1, 7, 1, 0, 1,30.00,45.00,Saturday
7,13.849999999999998
8,5.35
9,275.0
10,13.95073610604964
11,14.043765888958749
12,0.523678854359032
13,0.16127257067659045
14,1.9873064747017055
15,1.9873064747017055
16,-1.2963177291876065
17,-1.2963177291876065
18,0.0
19,0.09660155516285461
20,0.048300292788441786
21,0.0
22,0.09660155513990928
23,0.0
24,0.0
25,0.048300292788440585
26,0.0
27,0.0
28,12.075914262121927
29,0.0
30,0.0
31,0.0
32,0.0
33,11.152223863723284
34,87.00877988912478
35,116.01170651883305
36,0.0
37,0.0
38,0.0
39,87.03394697192448
2,1, 7, 1, 0, 1,45.00,60.00,Saturday
7,14.2
8,4.8
9,270.0
10,14.255996484109255
11,14.300092829583408
12,0.4633136675367332
13,0.17156053863630907
14,1.6531660215400763
15,1.6531660215400763
16,-1.0194523799497133
17,-1.0194523799497133
18,0.0
19,0.08718274180032856
20,0.04359005123081895
21,0.0
22,0.08718274181458646
23,0.0
24,0.0
25,0.04359005123082217
26,0.0
27,0.0
28,6.053943405220522
29,0.0
30,0.0
31,0.0
32,0.0
33,4.767403663134663
34,78.5139000140851
35,104.68520001878011
36,0.0
37,0.0
38,0.0
39,78.521559410673
2,1, 7, 1, 0, 2, 0.00,15.00,Saturday
7,13.95
8,4.75
9,272.5
10,14.05769888721897
11,14.33802927126555
12,0.4174034792766332
13,0.12667812129031242
14,1.5935516062115225
15,1.5935516062115225
16,-1.0105998180635216
17,-1.0105998180635216
18,0.0
19,0.08597937222348258
20,0.04298233893611089
21,0.0
22,0.08597937228799941
23,0.0
24,0.0
25,0.04298233893611089
26,0.0
27,0.0
28,11.49313823475867
29,0.0
30,0.0
31,0.0
32,0.0
33,29.91371214996938
34,77.40959213844461
35,103.21278951792614
36,0.0
37,0.0
38,0.0
39,77.48497784458489
2,1, 7, 1, 0, 2,15.00,30.00,Saturday
7,13.7
8,4.699999999999999
9,275.0
10,13.830051812748167
11,14.146719092599788
12,0.3881700283784584
13,0.08947419765026422
14,1.5353042804471884
15,1.5353042804471884
16,-1.0014772174181374
17,-1.0014772174181374
18,0.0
19,0.0847929397256463
20,0.042396467113456404
21,0.0
22,0.08479293972400119
23,0.0
24,0.0
25,0.042396467113456404
26,0.0
27,0.0
28,13.69865225437876
29,0.0
30,0.0
31,0.0
32,0.0
33,33.3587452590914
34,76.34756793042567
35,101.79675724056756
36,0.0
37,0.0
38,0.0
39,76.44468577514624
2,1, 7, 1, 0, 2,30.00,45.00,Saturday
7,13.45
8,4.6499999999999995
9,277.5
10,13.624568237656701
11,13.946856899553564
12,0.3598687072946
13,0.06626573763388656
14,1.4784105716712472
15,1.4784105716712472
16,-0.9920913046741259
17,-0.9920913046741259
18,0.0
19,0.08363089716659781
20,0.04181544769429025
21,0.0
22,0.08363089716589567
23,0.0
24,0.0
25,0.041815447694289846
26,0.0
27,0.0
28,18.151091192219212
29,0.0
30,0.0
31,0.0
32,0.0
33,33.513736357731204
34,75.31296087686604
35,100.41728116915472
36,0.0
37,0.0
38,0.0
39,75.40904638284793
2,1, 7, 1, 0, 2,45.00,60.00,Saturday
7,13.2
8,4.6
9,280.0
10,13.416053877511455
11,13.773962683700356
12,0.33097228996320127
13,0.04462528339451741
14,1.4228569355747738
15,1.4228569355747738
16,-0.9824488364682958
17,-0.9824488364682958
18,0.0
19,0.08247435371463345
20,0.04123717613532359
21,0.0
22,0.0824743537140658
23,0.0
24,0.0
25,0.04123717613532359
26,0.0
27,0.0
28,22.17283272089522
29,0.0
30,0.0
31,0.0
32,0.0
33,36.73434351310729
34,74.2822230258971
35,99.04296403452946
36,0.0
37,0.0
38,0.0
39,74.38636145379347
2,1, 7, 1, 0, 3, 0.00,15.00,Saturday
7,12.924999999999999
8,4.5249999999999995
9,280.0
10,13.186416342284698
11,13.598263120296048
12,0.3162043410596958
13,0.03645598395602021
14,1.3780453457271131
15,1.3780453457271131
16,-0.9515075006211017
17,-0.9515075006211017
18,0.0
19,0.08113284971193567
20,0.04056150209799184
21,0.0
22,0.0811328671146574
23,0.0
24,0.0
25,0.04056150209799184
26,0.0
27,0.0
28,26.410072354237315
29,0.0
30,0.0
31,0.0
32,0.0
33,41.60687535853888
34,73.08559010759517
35,97.44745347679356
36,0.0
37,0.0
38,0.0
39,73.194150723729
2,1, 7, 1, 0, 3,15.00,30.00,Saturday
7,12.649999999999999
8,4.449999999999999
9,280.0
10,12.955945019889771
11,13.404025114851068
12,0.30296223940563854
13,0.02839452069636271
14,1.333910617701028
15,1.333910617701028
16,-0.9210335217459473
17,-0.9210335217459473
18,0.0
19,0.07979006013044145
20,0.03989315324056981
21,0.0
22,0.07979006997000651
23,0.0
24,0.0
25,0.039893153240570016
26,0.0
27,0.0
28,30.418145201622824
29,0.0
30,0.0
31,0.0
32,0.0
33,44.552260155067856
34,71.88724422961327
35,95.84965897281769
36,0.0
37,0.0
38,0.0
39,72.00848662640206
2,1, 7, 1, 0, 3,30.00,45.00,Saturday
7,12.375
8,4.375
9,280.0
10,12.725975005214634
11,13.208433988675752
12,0.28989046087957077
13,0.021533320299666557
14,1.2904547771996238
15,1.2904547771996238
16,-0.8910282985425969
17,-0.8910282985425969
18,0.0
19,0.07844905985445179
20,0.03922369681245929
21,0.0
22,0.07844906570308961
23,0.0
24,0.0
25,0.039223696812459095
26,0.0
27,0.0
28,34.33249700460038
29,0.0
30,0.0
31,0.0
32,0.0
33,47.19813653023626
34,70.69026915194458
35,94.25369220259277
36,0.0
37,0.0
38,0.0
39,70.81974832208812
2,1, 7, 1, 0, 3,45.00,60.00,Saturday
7,12.1
8,4.3
9,280.0
10,12.495334313103813
11,13.013622070463832
12,0.2769282081656285
13,0.014809108684289326
14,1.24767984881541
15,1.24767984881541
16,-0.8614932289439732
17,-0.8614932289439732
18,0.0
19,0.07710815576403293
20,0.038553750168727544
21,0.0
22,0.07710815889288664
23,0.0
24,0.0
25,0.03855375016872715
26,0.0
27,0.0
28,38.03712505978773
29,0.0
30,0.0
31,0.0
32,0.0
33,49.87174111905465
34,69.49285603546919
35,92.65714138062559
36,0.0
37,0.0
38,0.0
39,69.62972817879911
2,1, 7, 1, 0, 4, 0.00,15.00,Saturday
7,11.85
8,4.25
9,282.5
10,12.282274592521885
11,12.816994031532053
12,0.2531124797348314
13,-0.004299053487689258
14,1.1982858194519692
15,1.1982858194519692
16,-0.8515091656408688
17,-0.8515091656408688
18,0.0
19,0.07597306254868502
20,0.03798642770787056
21,0.0
22,0.07597306384506183
23,0.0
24,0.0
25,0.037986427707870356
26,0.0
27,0.0
28,41.01417041837278
29,0.0
30,0.0
31,0.0
32,0.0
33,50.73863337651658
34,68.47882214991155
35,91.30509619988207
36,0.0
37,0.0
38,0.0
39,68.61698730754652
2,1, 7, 1, 0, 4,15.00,30.00,Saturday
7,11.6
8,4.199999999999999
9,285.0
10,12.069335421991235
11,12.63308096851296
12,0.22895214413739773
13,-0.02266470608686941
14,1.150147611930543
15,1.150147611930543
16,-0.8413116790973414
17,-0.8413116790973414
18,0.0
19,0.07484269417938307
20,0.0374213011719874
21,0.0
22,0.07484269482131459
23,0.0
24,0.0
25,0.0374213011719872
26,0.0
27,0.0
28,43.90555661444496
29,0.0
30,0.0
31,0.0
32,0.0
33,52.74214406107848
34,67.46880702313314
35,89.95840936417751
36,0.0
37,0.0
38,0.0
39,67.61184516488527
2,1, 7, 1, 0, 4,30.00,45.00,Saturday
7,11.35
8,4.1499999999999995
9,287.5
10,11.854967971441964
11,12.449310685021807
12,0.20555340883940718
13,-0.041208554324576874
14,1.1032511853814584
15,1.1032511853814584
16,-0.8309077323863495
17,-0.8309077323863495
18,0.0
19,0.07371629969853755
20,0.03685814136670754
21,0.0
22,0.07371629986077188
23,0.0
24,0.0
25,0.03685814136670734
26,0.0
27,0.0
28,46.56790274933481
29,0.0
30,0.0
31,0.0
32,0.0
33,54.81489994141852
34,66.46179600109048
35,88.61572800145397
36,0.0
37,0.0
38,0.0
39,66.60994297724265
2,1, 7, 1, 0, 4,45.00,60.00,Saturday
7,11.1
8,4.1
9,290.0
10,11.640155474813525
11,12.263277259313307
12,0.18296203167916825
13,-0.05914332361683919
14,1.0575824272426328
15,1.0575824272426328
16,-0.8203043185664007
17,-0.8203043185664007
18,0.0
19,0.07259647441345238
20,0.03629234736207817
21,0.0
22,0.07259575705339626
23,0.0
24,0.0
25,0.03629234736207817
26,0.0
27,0.0
28,49.098320116249795
29,0.0
30,0.0
31,0.0
32,0.0
33,56.63552167825497
34,65.46036376703374
35,87.28048502271166
36,0.0
37,0.0
38,0.0
39,65.60227117451366
2,1, 7, 1, 0, 5, 0.00,15.00,Saturday
7,11.274999999999999
8,4.1
9,290.0
10,11.736909133699097
11,12.071613498981943
12,0.20513520726928666
13,-0.038292280125461056
14,1.056912175625669
15,1.056912175625669
16,-0.8197844439147813
17,-0.8197844439147813
18,0.0
19,0.07262426821372085
20,0.03631179745706453
21,0.0
22,0.07262399916975618
23,0.0
24,0.0
25,0.03631179745706453
26,0.0
27,0.0
28,41.97633782711697
29,0.0
30,0.0
31,0.0
32,0.0
33,30.41602018879612
34,65.46748447219869
35,87.28997929626492
36,0.0
37,0.0
38,0.0
39,65.54286827553655
2,1, 7, 1, 0, 5,15.00,30.00,Saturday
7,11.45
8,4.1
9,290.0
10,11.855521167722614
11,12.11460712428826
12,0.20873632928118158
13,-0.017252923039486275
14,1.0562439238112278
15,1.0562439238112278
16,-0.8192661203920416
17,-0.8192661203920416
18,0.0
19,0.07264939854563734
20,0.03632118502840574
21,0.0
22,0.07264940857936365
23,0.0
24,0.0
25,0.03632118502840555
26,0.0
27,0.0
28,36.84221883677434
29,0.0
30,0.0
31,0.0
32,0.0
33,23.535706917238087
34,65.47705860355724
35,87.30274480474299
36,0.0
37,0.0
38,0.0
39,65.5287762865203
2,1, 7, 1, 0, 5,30.00,45.00,Saturday
7,11.625000000000002
8,4.1
9,290.0
10,11.967031784503064
11,12.190703013407155
12,0.21129983464333207
13,-0.0101845457145489
14,1.0555776950415927
15,1.0555776950415927
16,-0.8187493660258504
17,-0.8187493660258504
18,0.0
19,0.07265724688429487
20,0.03632862187950716
21,0.0
22,0.0726572468835667
23,0.0
24,0.0
25,0.036328621879507556
26,0.0
27,0.0
28,31.05844578420777
29,0.0
30,0.0
31,0.0
32,0.0
33,20.310436143087394
34,65.46950246055675
35,87.29266994740901
36,0.0
37,0.0
38,0.0
39,65.51982692980971
2,1, 7, 1, 0, 5,45.00,60.00,Saturday
7,11.8
8,4.1
9,290.0
10,12.086204088016707
11,12.25677896382521
12,0.21436888247257008
13,-0.00528254225103312
14,1.054913512863183
15,1.054913512863183
16,-0.8182341990797762
17,-0.8182341990797762
18,0.0
19,0.07266356593645812
20,0.03633177911323811
21,0.0
22,0.07266356593500338
23,0.0
24,0.0
25,0.0363317791132385
26,0.0
27,0.0
28,25.97532755959259
29,0.0
30,0.0
31,0.0
32,0.0
33,15.480902406578998
34,65.46234163371442
35,87.2831221782859
36,0.0
37,0.0
38,0.0
39,65.50047370498974
2,1, 7, 1, 0, 6, 0.00,15.00,Saturday
7,12.000000000000002
8,4.1
9,292.5
10,12.231377320372228
11,12.33437502996815
12,0.2039960321223156
13,-0.011391510665404588
14,1.033833187671296
15,1.033833187671296
16,-0.8260529881883392
17,-0.8260529881883392
18,0.0
19,0.0724433932680381
20,0.03622167995562878
21,0.0
22,0.072443393264308
23,0.0
24,0.0
25,0.036221679955628375
26,0.0
27,0.0
28,20.921248545692023
29,0.0
30,0.0
31,0.0
32,0.0
33,9.312714216458485
34,65.25144551482806
35,87.00192735310408
36,0.0
37,0.0
38,0.0
39,65.27059296191223
2,1, 7, 1, 0, 6,15.00,30.00,Saturday
7,12.2
8,4.1
9,295.0
10,12.345866655898163
11,12.395898152653864
12,0.9696379135409975
13,0.6044251065657429
14,1.0127853461800507
15,1.0127853461800507
16,-0.8338599350215744
17,-0.8338599350215744
18,0.0
19,0.09576640121420617
20,0.0478832175363474
21,0.0
22,0.09576643504324074
23,0.0
24,0.0
25,0.047883217536349006
26,0.0
27,0.0
28,17.423562249419923
29,0.0
30,0.0
31,0.0
32,0.0
33,5.975933399383839
34,86.23310911643044
35,114.97747882190725
36,0.0
37,0.0
38,0.0
39,86.24222753924244
2,1, 7, 1, 0, 6,30.00,45.00,Saturday
7,12.399999999999999
8,4.1
9,297.5
10,12.535624943418188
11,12.518928346449973
12,0.18067831352159783
13,-0.02453293148623775
14,0.9917699198942592
15,0.9917699198942592
16,-0.8416550850803317
17,-0.8416550850803317
18,0.0
19,0.07199943525826091
20,0.035997138740040076
21,0.0
22,0.07199943521285879
23,0.0
24,0.0
25,0.03599713874003686
26,0.0
27,0.0
28,12.171282482552375
29,0.0
30,0.0
31,1.4982196492461672
32,0.0
33,0.0
34,64.82974197030589
35,86.43965596040785
36,0.0
37,0.0
38,0.0
39,64.8169601971189
2,1, 7, 1, 0, 6,45.00,60.00,Saturday
7,12.6
8,4.1
9,300.0
10,12.69897917113621
11,12.66857966063985
12,0.16600373882230884
13,-0.034316151096097994
14,0.9707868394753404
15,0.9707868394753404
16,-0.8494384845409224
17,-0.8494384845409224
18,0.0
19,0.07177158605332021
20,0.0358833211524362
21,0.0
22,0.07177158601709958
23,0.0
24,0.0
25,0.035883321152434595
26,0.0
27,0.0
28,8.84838796741423
29,0.0
30,0.0
31,2.71730716588365
32,0.0
33,0.0
34,64.61628011936385
35,86.1550401591518
36,0.0
37,0.0
38,0.0
39,64.60059071544813
2,1, 7, 1, 0, 7, 0.00,15.00,Saturday
7,12.774999999999999
8,4.1
9,300.0
10,12.841011911385923
11,12.80068747192521
12,0.16569435170463137
13,-0.03379936840641007
14,0.9701824765360136
15,0.9701824765360136
16,-0.8489096669690114
17,-0.8489096669690114
18,0.0
19,0.07177184095191305
20,0.03588453974074721
21,0.0
22,0.07177184092300126
23,0.0
24,0.0
25,0.03588453974074881
26,0.0
27,0.0
28,5.897649877943919
29,0.0
30,0.0
31,3.6025039971090127
32,0.0
33,0.0
34,64.60900724309926
35,86.14534299079901
36,0.0
37,0.0
38,0.0
39,64.59657541524261
2,1, 7, 1, 0, 7,15.00,30.00,Saturday
7,12.95
8,4.1
9,300.0
10,12.988299624128581
11,12.91903248862445
12,0.1671871982769695
13,-0.03238872911208574
14,0.9695801292108478
15,0.9695801292108478
16,-0.8483826130594913
17,-0.8483826130594913
18,0.0
19,0.07177384460417503
20,0.0358852931250766
21,0.0
22,0.07177384457272215
23,0.0
24,0.0
25,0.0358852931250766
26,0.0
27,0.0
28,3.4197801266084533
29,0.0
30,0.0
31,6.18456578191179
32,0.0
33,0.0
34,64.60456487538741
35,86.13941983384989
36,0.0
37,0.0
38,0.0
39,64.58546210570927
2,1, 7, 1, 0, 7,30.00,45.00,Saturday
7,13.125000000000002
8,4.1
9,300.0
10,13.143074240819814
11,13.0460894091362
12,0.16847019388024265
13,-0.02964951205149182
14,0.9689798212810429
15,0.9689798212810429
16,-0.8478573436209121
17,-0.8478573436209121
18,0.0
19,0.07177699624076202
20,0.03588783236665118
21,0.0
22,0.07177699621925487
23,0.0
24,0.0
25,0.03588783236665279
26,0.0
27,0.0
28,1.6129382901866507
29,0.0
30,0.0
31,8.654680348822689
32,0.0
33,0.0
34,64.60283022501025
35,86.13710696668034
36,0.0
37,0.0
38,0.0
39,64.57918661546846
2,1, 7, 1, 0, 7,45.00,60.00,Saturday
7,13.3
8,4.1
9,300.0
10,13.302960653290025
11,13.185053053530316
12,0.1693301988120573
13,-0.02719023009295305
14,0.9683815768268927
15,0.9683815768268927
16,-0.8473338797235307
17,-0.8473338797235307
18,0.0
19,0.07177986287422848
20,0.03588962502163343
21,0.0
22,0.07177986285963364
23,0.0
24,0.0
25,0.03588962502163343
26,0.0
27,0.0
28,0.26405695006505475
29,0.0
30,0.0
31,10.51589312519346
32,0.0
33,0.0
34,64.60199694894906
35,86.13599593193209
36,0.0
37,0.0
38,0.0
39,64.57440471141503
2,1, 7, 1, 0, 8, 0.00,15.00,Saturday
7,13.725000000000001
8,4.324999999999999
9,300.0
10,13.667772748011899
11,13.46684150793249
12,0.1922481006819085
13,-0.020442451592668304
14,1.075964727798218
15,1.075964727798218
16,-0.9414691368234405
17,-0.9414691368234405
18,0.0
19,0.07573356337604768
20,0.03786664436260424
21,0.0
22,0.07573356336747283
23,0.0
24,0.0
25,0.03786664436260475
26,5.3775032293255265
27,0.0
28,0.0
29,0.0
30,0.0
31,18.880502652869723
32,0.0
33,0.0
34,68.17258718442854
35,90.89678291257138
36,0.0
37,0.0
38,0.0
39,68.12372446722804
2,1, 7, 1, 0, 8,15.00,30.00,Saturday
7,14.15
8,4.55
9,300.0
10,14.024347500080879
11,13.955831745589798
12,0.20480579102923877
13,-0.032752905647577275
14,1.1890498601494226
15,1.1890498601494226
16,-1.0404186276307443
17,-1.0404186276307443
18,0.0
19,0.07966266578070202
20,0.03983011187642826
21,0.0
22,0.07966266576000003
23,0.0
24,0.0
25,0.03983011187642846
26,12.401041014903681
27,0.0
28,0.0
29,0.0
30,0.0
31,6.761421048495519
32,0.0
33,0.0
34,71.69239112019159
35,95.5898548269221
36,0.0
37,0.0
38,0.0
39,71.67301812239998
2,1, 7, 1, 0, 8,30.00,45.00,Saturday
7,14.575
8,4.775
9,300.0
10,14.391562362256078
11,14.264242090297767
12,0.22736264934147565
13,-0.03213896896148132
14,1.3076156765621587
15,1.3076156765621587
16,-1.1441637169918883
17,-1.1441637169918883
18,0.0
19,0.08361006835747106
20,0.04180477291451179
21,0.0
22,0.08361006834616977
23,0.0
24,0.0
25,0.04180477291451158
26,18.97291785160813
27,0.0
28,0.0
29,0.0
30,0.0
31,13.16833858985773
32,0.0
33,0.0
34,75.2297930202769
35,100.30639069370253
36,0.0
37,0.0
38,0.0
39,75.19599218390772
2,1, 7, 1, 0, 8,45.00,60.00,Saturday
7,15.0
8,5.0
9,300.0
10,14.763879717096001
11,14.597788827151804
12,0.25040990435823185
13,-0.03261844437216321
14,1.4316415132487612
15,1.4316415132487612
16,-1.2526863240926653
17,-1.2526863240926653
18,0.0
19,0.08755720899338587
20,0.043778429249568984
21,0.0
22,0.08755720898385769
23,0.0
24,0.0
25,0.04377842924956879
26,25.53700037566975
27,0.0
28,0.0
29,0.0
30,0.0
31,17.96276267394562
32,0.0
33,0.0
34,78.76695443003261
35,105.02260590671014
36,0.0
37,0.0
38,0.0
39,78.7212379502607
2,1, 7, 1, 0, 9, 0.00,15.00,Saturday
7,15.4
8,5.2
9,302.5
10,15.118976918329112
11,14.918832248040694
12,0.18921970908884078
13,-0.10727008572085588
14,1.4281770527465671
15,1.4281770527465671
16,-1.390593446095341
17,-1.390593446095341
18,0.0
19,0.08979164658365663
20,0.04489569997794818
21,0.0
22,0.08979164658062186
23,0.0
24,0.0
25,0.04489569997794879
26,31.12574741414052
27,0.0
28,0.0
29,0.0
30,0.0
31,22.167385923508895
32,0.0
33,0.0
34,80.76462766923562
35,107.6861702256475
36,0.0
37,0.0
38,0.0
39,80.70822211090729
2,1, 7, 1, 0, 9,15.00,30.00,Saturday
7,15.8
8,5.4
9,305.0
10,15.480441243037296
11,15.249743408239347
12,0.1157782285304922
13,-0.19350089471995
14,1.4108051175984593
15,1.4108051175984593
16,-1.5380088577097952
17,-1.5380088577097952
18,0.0
19,0.09190912310661314
20,0.04595446513808745
21,0.0
22,0.09190912310926311
23,0.0
24,0.0
25,0.04595446513808786
26,36.17842065161912
27,0.0
28,0.0
29,0.0
30,0.0
31,26.117783874414023
32,0.0
33,0.0
34,82.65831789274348
35,110.21109052365799
36,0.0
37,0.0
38,0.0
39,82.59205686518379
2,1, 7, 1, 0, 9,30.00,45.00,Saturday
7,16.200000000000003
8,5.6
9,307.5
10,15.844207539580593
11,15.588100326344978
12,0.02955372875176266
13,-0.2923243805850192
14,1.3785382540343283
15,1.3785382540343283
16,-1.6952294745557275
17,-1.6952294745557275
18,0.0
19,0.0939060417914499
20,0.04695293886033947
21,0.0
22,0.0939060417984082
23,0.0
24,0.0
25,0.046952938860339875
26,41.09881059732898
27,0.0
28,0.0
29,0.0
30,0.0
31,29.583478532818315
32,0.0
33,0.0
34,84.44377539660078
35,112.59170052880103
36,0.0
37,0.0
38,0.0
39,84.36881464615973
2,1, 7, 1, 0, 9,45.00,60.00,Saturday
7,16.6
8,5.8
9,310.0
10,16.211604123013675
11,15.931438126684945
12,-0.07015853532350244
13,-0.4040711822685453
14,1.330393763188629
15,1.330393763188629
16,-1.86255126846408
17,-1.86255126846408
18,0.0
19,0.09577953483315034
20,0.04788969593894098
21,0.0
22,0.09577953484196347
23,0.0
24,0.0
25,0.04788969593894098
26,45.69676567986575
27,0.0
28,0.0
29,0.0
30,0.0
31,32.962639073113976
32,0.0
33,0.0
34,86.1188969702834
35,114.82519596037787
36,0.0
37,0.0
38,0.0
39,86.03546110484714
2,1, 7, 1, 0,10, 0.00,15.00,Saturday
7,17.025000000000002
8,6.0249999999999995
9,310.0
10,16.60964436816636
11,16.307178708436147
12,-0.07600991809223687
13,-0.4360110211439635
14,1.433585253617877
15,1.433585253617877
16,-2.0070193550650273
17,-2.0070193550650273
18,0.0
19,0.09949984508689469
20,0.04974984781945002
21,0.0
22,0.09949984509611617
23,0.0
24,0.0
25,0.04974984781945002
26,50.69218194617484
27,0.0
28,0.0
29,0.0
30,0.0
31,36.91423316356411
32,0.0
33,0.0
34,89.45563083482821
35,119.27417444643763
36,0.0
37,0.0
38,0.0
39,89.36249990651447
2,1, 7, 1, 0,10,15.00,30.00,Saturday
7,17.450000000000003
8,6.25
9,310.0
10,17.011250865585318
11,16.690467739252142
12,-0.08233209813471361
13,-0.46994999594774434
14,1.5404961333749503
15,1.5404961333749503
16,-2.1566945867249303
17,-2.1566945867249303
18,0.0
19,0.10321922886644948
20,0.05160953283870315
21,0.0
22,0.10321922887642787
23,0.0
24,0.0
25,0.05160953283870294
26,55.46711383126902
27,0.0
28,0.0
29,0.0
30,0.0
31,40.55349068481206
32,0.0
33,0.0
34,92.79205133658121
35,123.72273511544161
36,0.0
37,0.0
38,0.0
39,92.68973576891091
2,1, 7, 1, 0,10,30.00,45.00,Saturday
7,17.875
8,6.4750000000000005
9,310.0
10,17.417163646184093
11,17.08049557371855
12,-0.08910457369164027
13,-0.5054273433094226
14,1.6511154709856475
15,1.6511154709856475
16,-2.311561659379906
17,-2.311561659379906
18,0.0
19,0.10693832601220829
20,0.053469071981305044
21,0.0
22,0.10693832602310151
23,0.0
24,0.0
25,0.05346907198130545
26,59.877378086694144
27,0.0
28,0.0
29,0.0
30,0.0
31,44.03037507944318
32,0.0
33,0.0
34,96.1290784357322
35,128.17210458097628
36,0.0
37,0.0
38,0.0
39,96.01804717337195
2,1, 7, 1, 0,10,45.00,60.00,Saturday
7,18.3
8,6.7
9,310.0
10,17.826605852134733
11,17.476697209152622
12,-0.09631144355658211
13,-0.5424806985049302
14,1.7654329452590898
15,1.7654329452590898
16,-2.4716061233627244
17,-2.4716061233627244
18,0.0
19,0.1106570025471989
20,0.05532839762631693
21,0.0
22,0.11065700255923884
23,0.0
24,0.0
25,0.05532839762631733
26,63.97075384476007
27,0.0
28,0.0
29,0.0
30,0.0
31,47.28371730961208
32,0.0
33,0.0
34,99.46646328580033
35,132.62195104773377
36,0.0
37,0.0
38,0.0
39,99.34726850943194
2,1, 7, 1, 0,11, 0.00,15.00,Saturday
7,18.25
8,6.825
9,307.5
10,17.853408251355912
11,17.571155607398623
12,0.03613103123764108
13,-0.44961531442596675
14,2.033741371096727
15,2.033741371096727
16,-2.5009522266189474
17,-2.5009522266189474
18,0.0
19,0.11444931072553743
20,0.057224451128312336
21,0.0
22,0.11444931074141002
23,0.0
24,0.0
25,0.057224451128312336
26,55.43831069203757
27,0.0
28,0.0
29,0.0
30,0.0
31,39.45442889403292
32,0.0
33,0.0
34,102.86337729848141
35,137.15116973130856
36,0.0
37,0.0
38,0.0
39,102.76078452542824
2,1, 7, 1, 0,11,15.00,30.00,Saturday
7,18.200000000000003
8,6.95
9,305.0
10,17.85925697295217
11,17.61675469637422
12,0.1801645754408223
13,-0.34353889577767704
14,2.3182635197978083
15,2.3182635197978083
16,-2.5272872797795767
17,-2.5272872797795767
18,0.0
19,0.11828636726878339
20,0.059142738795280314
21,0.0
22,0.11828636727929825
23,0.0
24,0.0
25,0.05914273879528274
26,49.236889383516925
27,0.0
28,0.0
29,0.0
30,0.0
31,35.040503768667364
32,0.0
33,0.0
34,106.33233364558954
35,141.77644486078606
36,0.0
37,0.0
38,0.0
39,106.24051996231513
2,1, 7, 1, 0,11,30.00,45.00,Saturday
7,18.150000000000002
8,7.075
9,302.5
10,17.866082452346255
11,17.666350716091912
12,0.33451759669104336
13,-0.2272259135116019
14,2.619412736331757
15,2.619412736331757
16,-2.550480822217762
17,-2.550480822217762
18,0.0
19,0.12216164851952417
20,0.061080058593322634
21,0.0
22,0.1221616485105794
23,0.0
24,0.0
25,0.061080058593324264
26,42.377160937605204
27,0.0
28,0.0
29,0.0
30,0.0
31,29.81097800717258
32,0.0
33,0.0
34,109.83741133401516
35,146.4498817786869
36,0.0
37,0.0
38,0.0
39,109.75851649314404
2,1, 7, 1, 0,11,45.00,60.00,Saturday
7,18.1
8,7.2
9,300.0
10,17.86371928946584
11,17.71203241538417
12,0.4998528839081595
13,-0.10168778425850744
14,2.937602640921665
15,2.937602640921665
16,-2.570402310806456
17,-2.570402310806456
18,0.0
19,0.12607264229003742
20,0.06303493040451998
21,0.0
22,0.1260726422507069
23,0.0
24,0.0
25,0.06303493040451998
26,36.40237004461685
27,0.0
28,0.0
29,0.0
30,0.0
31,23.368706279435006
32,0.0
33,0.0
34,113.37238795937243
35,151.1631839458299
36,0.0
37,0.0
38,0.0
39,113.30856244728506
2,1, 7, 1, 0,12, 0.00,15.00,Saturday
7,18.075000000000003
8,7.325
9,297.5
10,17.875828996827178
11,17.743241377078768
12,0.5632319292060949
13,-0.0662622798174195
14,3.103988278818857
15,3.103988278818857
16,-2.634166923691512
17,-2.634166923691512
18,0.0
19,0.12866979401312223
20,0.06433228234553927
21,0.0
22,0.12866979395335879
23,0.0
24,0.0
25,0.06433228234553927
26,31.320076967531723
27,0.0
28,0.0
29,0.0
30,0.0
31,20.848395297576158
32,0.0
33,0.0
34,115.72266887767682
35,154.29689183690243
36,0.0
37,0.0
38,0.0
39,115.66107961318968
2,1, 7, 1, 0,12,15.00,30.00,Saturday
7,18.05
8,7.45
9,295.0
10,17.88510395783337
11,17.78251374907853
12,0.629164200868854
13,-0.02729893276832976
14,3.2765233164620913
15,3.2765233164620913
16,-2.697670863887121
17,-2.697670863887121
18,0.0
19,0.13128035492483567
20,0.0656367456544876
21,0.0
22,0.13128035485231315
23,0.0
24,0.0
25,0.06563674565449083
26,26.458769297315875
27,0.0
28,0.0
29,0.0
30,0.0
31,16.460120949043993
32,0.0
33,0.0
34,118.0844396019069
35,157.4459194692092
36,0.0
37,0.0
38,0.0
39,118.03234497559757
2,1, 7, 1, 0,12,30.00,45.00,Saturday
7,18.025
8,7.575
9,292.5
10,17.890558292523746
11,17.816617639023512
12,0.6988939612871683
13,0.01408363647532308
14,3.45531945066532
15,3.45531945066532
16,-2.760867992443367
17,-2.760867992443367
18,0.0
19,0.1339025106943423
20,0.06694567748061121
21,0.0
22,0.13390251060715366
23,0.0
24,0.0
25,0.06694567748061121
26,22.005029792795945
27,0.0
28,0.0
29,0.0
30,0.0
31,12.101122894460302
32,0.0
33,0.0
34,120.4556234489997
35,160.6074979319996
36,0.0
37,0.0
38,0.0
39,120.41066507867633
2,1, 7, 1, 0,12,45.00,60.00,Saturday
7,18.0
8,7.7
9,290.0
10,17.893136596350733
11,17.843395750537557
12,0.7725023983251404
13,0.05874542637087504
14,3.6404884119463574
15,3.6404884119463574
16,-2.8237121656763398
17,-2.8237121656763398
18,0.0
19,0.13653806188055703
20,0.06825945359608325
21,0.0
22,0.136538061790005
23,0.0
24,0.0
25,0.06825945359607678
26,17.836987473917777
27,0.0
28,0.0
29,0.0
30,0.0
31,8.30109506225146
32,0.0
33,0.0
34,122.83813965501082
35,163.78418620668108
36,0.0
37,0.0
38,0.0
39,122.79551761985513
2,1, 7, 1, 0,13, 0.00,15.00,Saturday
7,17.95
8,7.825
9,287.5
10,17.871274955147204
11,17.863535296545166
12,0.8488966531105322
13,0.1053875255791713
14,3.8325344129307557
15,3.8325344129307557
16,-2.8864528047072815
17,-2.8864528047072815
18,0.0
19,0.13917989287400312
20,0.06958994490483096
21,0.0
22,0.1391798928739695
23,0.0
24,0.0
25,0.06958994490482448
26,13.396888923400718
27,0.0
28,0.0
29,0.0
30,0.0
31,1.3170668308242777
32,0.0
33,0.0
34,125.2269817675594
35,166.96930902341253
36,0.0
37,0.0
38,0.0
39,125.22126377968964
2,1, 7, 1, 0,13,15.00,30.00,Saturday
7,17.9
8,7.949999999999999
9,285.0
10,17.861716914173464
11,17.86487372976575
12,3.89459661924767
13,3.8476752245575816
14,4.03121789678133
15,4.03121789678133
16,-2.948761239312267
17,-2.948761239312267
18,0.0
19,0.2099101363028637
20,0.10495521344314687
21,0.0
22,0.20991042682860458
23,0.0
24,0.0