Program Version,EnergyPlus, Version 22.2.0-c249759bad, YMD=2024.04.02 06:52
1,5,Environment Title[],Latitude[deg],Longitude[deg],Time Zone[],Elevation[m]
2,8,Day of Simulation[],Month[],Day of Month[],DST Indicator[1=yes 0=no],Hour[],StartMinute[],EndMinute[],DayType
3,5,Cumulative Day of Simulation[],Month[],Day of Month[],DST Indicator[1=yes 0=no],DayType  ! When Daily Report Variables Requested
4,2,Cumulative Days of Simulation[],Month[]  ! When Monthly Report Variables Requested
5,1,Cumulative Days of Simulation[] ! When Run Period Report Variables Requested
6,1,Calendar Year of Simulation[] ! When Annual Report Variables Requested
7,1,Environment,Site Outdoor Air Drybulb Temperature [C] !TimeStep
8,1,Environment,Site Outdoor Air Dewpoint Temperature [C] !TimeStep
9,1,Environment,Site Outdoor Air Wetbulb Temperature [C] !TimeStep
10,1,Environment,Site Diffuse Solar Radiation Rate per Area [W/m2] !TimeStep
11,1,Environment,Site Direct Solar Radiation Rate per Area [W/m2] !TimeStep
12,1,Environment,Site Solar Azimuth Angle [deg] !TimeStep
13,1,Environment,Site Solar Altitude Angle [deg] !TimeStep
End of Data Dictionary
1,DENVER_STAPLETON ANN HTG 99.6% CONDNS DB,  37.47, 122.12,  -8.00,   2.00
2,1,12,21, 0, 1, 0.00,15.00,WinterDesignDay
7,-20.0
8,-20.000010377544204
9,-20.00000247649434
10,0.0
11,0.0
12,237.35011139954736
13,2.7569328974275824
2,1,12,21, 0, 1,15.00,30.00,WinterDesignDay
7,-20.0
8,-20.000010377544204
9,-20.00000247649434
10,0.0
11,0.0
12,239.67230946835966
13,0.2189532670619489
2,1,12,21, 0, 1,30.00,45.00,WinterDesignDay
7,-20.0
8,-20.000010377544204
9,-20.00000247649434
10,0.0
11,0.0
12,241.92674098209358
13,-2.379053853518861
2,1,12,21, 0, 1,45.00,60.00,WinterDesignDay
7,-20.0
8,-20.000010377544204
9,-20.00000247649434
10,0.0
11,0.0
12,244.1211068302475
13,-5.031441949900038
2,1,12,21, 0, 2, 0.00,15.00,WinterDesignDay
7,-20.0
8,-20.000010377544204
9,-20.00000247649434
10,0.0
11,0.0
12,246.2632151831736
13,-7.732992348923082
2,1,12,21, 0, 2,15.00,30.00,WinterDesignDay
7,-20.0
8,-20.000010377544204
9,-20.00000247649434
10,0.0
11,0.0
12,248.3609976984269
13,-10.478871285686218
2,1,12,21, 0, 2,30.00,45.00,WinterDesignDay
7,-20.0
8,-20.000010377544204
9,-20.00000247649434
10,0.0
11,0.0
12,250.42255397193415
13,-13.264585449101558
2,1,12,21, 0, 2,45.00,60.00,WinterDesignDay
7,-20.0
8,-20.000010377544204
9,-20.00000247649434
10,0.0
11,0.0
12,252.45622416292412
13,-16.08593646707798
2,1,12,21, 0, 3, 0.00,15.00,WinterDesignDay
7,-20.0
8,-20.000010377544204
9,-20.00000247649434
10,0.0
11,0.0
12,254.47069150949025
13,-18.938974307655354
2,1,12,21, 0, 3,15.00,30.00,WinterDesignDay
7,-20.0
8,-20.000010377544204
9,-20.00000247649434
10,0.0
11,0.0
12,256.475118600951
13,-21.819949109636557
2,1,12,21, 0, 3,30.00,45.00,WinterDesignDay
7,-20.0
8,-20.000010377544204
9,-20.00000247649434
10,0.0
11,0.0
12,258.47932394719794
13,-24.725260472668186
2,1,12,21, 0, 3,45.00,60.00,WinterDesignDay
7,-20.0
8,-20.000010377544204
9,-20.00000247649434
10,0.0
11,0.0
12,260.49400884354725
13,-27.651402677765002
2,1,12,21, 0, 4, 0.00,15.00,WinterDesignDay
7,-20.0
8,-20.000010377544204
9,-20.00000247649434
10,0.0
11,0.0
12,262.5310491645451
13,-30.594903601722393
2,1,12,21, 0, 4,15.00,30.00,WinterDesignDay
7,-20.0
8,-20.000010377544204
9,-20.00000247649434
10,0.0
11,0.0
12,264.60387311754147
13,-33.552254128794
2,1,12,21, 0, 4,30.00,45.00,WinterDesignDay
7,-20.0
8,-20.000010377544204
9,-20.00000247649434
10,0.0
11,0.0
12,266.72795502212824
13,-36.5198234958699
2,1,12,21, 0, 4,45.00,60.00,WinterDesignDay
7,-20.0
8,-20.000010377544204
9,-20.00000247649434
10,0.0
11,0.0
12,268.92146816672204
13,-39.49375399495036
2,1,12,21, 0, 5, 0.00,15.00,WinterDesignDay
7,-20.0
8,-20.000010377544204
9,-20.00000247649434
10,0.0
11,0.0
12,271.2061586929555
13,-42.46982542199555
2,1,12,21, 0, 5,15.00,30.00,WinterDesignDay
7,-20.0
8,-20.000010377544204
9,-20.00000247649434
10,0.0
11,0.0
12,273.6085301832263
13,-45.44327499602592
2,1,12,21, 0, 5,30.00,45.00,WinterDesignDay
7,-20.0
8,-20.000010377544204
9,-20.00000247649434
10,0.0
11,0.0
12,276.1614693698877
13,-48.408551181683556
2,1,12,21, 0, 5,45.00,60.00,WinterDesignDay
7,-20.0
8,-20.000010377544204
9,-20.00000247649434
10,0.0
11,0.0
12,278.90650278462795
13,-51.35896829213387
2,1,12,21, 0, 6, 0.00,15.00,WinterDesignDay
7,-20.0
8,-20.000010377544204
9,-20.00000247649434
10,0.0
11,0.0
12,281.89695853203693
13,-54.28621022733387
2,1,12,21, 0, 6,15.00,30.00,WinterDesignDay
7,-20.0
8,-20.000010377544204
9,-20.00000247649434
10,0.0
11,0.0
12,285.20241954028984
13,-57.17960185311746
2,1,12,21, 0, 6,30.00,45.00,WinterDesignDay
7,-20.0
8,-20.000010377544204
9,-20.00000247649434
10,0.0
11,0.0
12,288.9149792548671
13,-60.02501868351116
2,1,12,21, 0, 6,45.00,60.00,WinterDesignDay
7,-20.0
8,-20.000010377544204
9,-20.00000247649434
10,0.0
11,0.0
12,293.15786835783285
13,-62.80323099980203
2,1,12,21, 0, 7, 0.00,15.00,WinterDesignDay
7,-20.0
8,-20.000010377544204
9,-20.00000247649434
10,0.0
11,0.0
12,298.0967359158654
13,-65.48737173064698
2,1,12,21, 0, 7,15.00,30.00,WinterDesignDay
7,-20.0
8,-20.000010377544204
9,-20.00000247649434
10,0.0
11,0.0
12,303.9524186847357
13,-68.03909951094715
2,1,12,21, 0, 7,30.00,45.00,WinterDesignDay
7,-20.0
8,-20.000010377544204
9,-20.00000247649434
10,0.0
11,0.0
12,311.0092739958858
13,-70.40303079284364
2,1,12,21, 0, 7,45.00,60.00,WinterDesignDay
7,-20.0
8,-20.000010377544204
9,-20.00000247649434
10,0.0
11,0.0
12,319.600664634344
13,-72.49961598554997
2,1,12,21, 0, 8, 0.00,15.00,WinterDesignDay
7,-20.0
8,-20.000010377544204
9,-20.00000247649434
10,0.0
11,0.0
12,330.02916102476706
13,-74.2190881902357
2,1,12,21, 0, 8,15.00,30.00,WinterDesignDay
7,-20.0
8,-20.000010377544204
9,-20.00000247649434
10,0.0
11,0.0
12,342.36338538730337
13,-75.42510892455141
2,1,12,21, 0, 8,30.00,45.00,WinterDesignDay
7,-20.0
8,-20.000010377544204
9,-20.00000247649434
10,0.0
11,0.0
12,356.14123960506055
13,-75.98302576061101
2,1,12,21, 0, 8,45.00,60.00,WinterDesignDay
7,-20.0
8,-20.000010377544204
9,-20.00000247649434
10,0.0
11,0.0
12,349.7241295911465
13,-75.81552059745617
2,1,12,21, 0, 9, 0.00,15.00,WinterDesignDay
7,-20.0
8,-20.000010377544204
9,-20.00000247649434
10,0.0
11,0.0
12,336.505167940748
13,-74.94696665907739
2,1,12,21, 0, 9,15.00,30.00,WinterDesignDay
7,-20.0
8,-20.000010377544204
9,-20.00000247649434
10,0.0
11,0.0
12,325.0230620757141
13,-73.48848714426742
2,1,12,21, 0, 9,30.00,45.00,WinterDesignDay
7,-20.0
8,-20.000010377544204
9,-20.00000247649434
10,0.0
11,0.0
12,315.46304250501106
13,-71.58109416711441
2,1,12,21, 0, 9,45.00,60.00,WinterDesignDay
7,-20.0
8,-20.000010377544204
9,-20.00000247649434
10,0.0
11,0.0
12,307.6152535583513
13,-69.35064479547101
2,1,12,21, 0,10, 0.00,15.00,WinterDesignDay
7,-20.0
8,-20.000010377544204
9,-20.00000247649434
10,0.0
11,0.0
12,301.1464686912517
13,-66.89266890348213
2,1,12,21, 0,10,15.00,30.00,WinterDesignDay
7,-20.0
8,-20.000010377544204
9,-20.00000247649434
10,0.0
11,0.0
12,295.7410852572026
13,-64.27474692617395
2,1,12,21, 0,10,30.00,45.00,WinterDesignDay
7,-20.0
8,-20.000010377544204
9,-20.00000247649434
10,0.0
11,0.0
12,291.14400158980413
13,-61.54366591656286
2,1,12,21, 0,10,45.00,60.00,WinterDesignDay
7,-20.0
8,-20.000010377544204
9,-20.00000247649434
10,0.0
11,0.0
12,287.1611317162784
13,-58.73194564905256
2,1,12,21, 0,11, 0.00,15.00,WinterDesignDay
7,-20.0
8,-20.000010377544204
9,-20.00000247649434
10,0.0
11,0.0
12,283.6477620213286
13,-55.8625772764919
2,1,12,21, 0,11,15.00,30.00,WinterDesignDay
7,-20.0
8,-20.000010377544204
9,-20.00000247649434
10,0.0
11,0.0
12,280.4961302146506
13,-52.95220519273306
2,1,12,21, 0,11,30.00,45.00,WinterDesignDay
7,-20.0
8,-20.000010377544204
9,-20.00000247649434
10,0.0
11,0.0
12,277.62534302350434
13,-50.01321230413919
2,1,12,21, 0,11,45.00,60.00,WinterDesignDay
7,-20.0
8,-20.000010377544204
9,-20.00000247649434
10,0.0
11,0.0
12,274.97389887941404
13,-47.055086122328916
2,1,12,21, 0,12, 0.00,15.00,WinterDesignDay
7,-20.0
8,-20.000010377544204
9,-20.00000247649434
10,0.0
11,0.0
12,272.49432620058246
13,-44.08532374181331
2,1,12,21, 0,12,15.00,30.00,WinterDesignDay
7,-20.0
8,-20.000010377544204
9,-20.00000247649434
10,0.0
11,0.0
12,270.14937627524876
13,-41.110041643409836
2,1,12,21, 0,12,30.00,45.00,WinterDesignDay
7,-20.0
8,-20.000010377544204
9,-20.00000247649434
10,0.0
11,0.0
12,267.90931561363124
13,-38.134395040985325
2,1,12,21, 0,12,45.00,60.00,WinterDesignDay
7,-20.0
8,-20.000010377544204
9,-20.00000247649434
10,0.0
11,0.0
12,265.7499858694246
13,-35.1628728558033
2,1,12,21, 0,13, 0.00,15.00,WinterDesignDay
7,-20.0
8,-20.000010377544204
9,-20.00000247649434
10,0.0
11,0.0
12,263.65139914758066
13,-32.19951040489874
2,1,12,21, 0,13,15.00,30.00,WinterDesignDay
7,-20.0
8,-20.000010377544204
9,-20.00000247649434
10,0.0
11,0.0
12,261.59670874503615
13,-29.248046975673684
2,1,12,21, 0,13,30.00,45.00,WinterDesignDay
7,-20.0
8,-20.000010377544204
9,-20.00000247649434
10,0.0
11,0.0
12,259.571445464833
13,-26.312046110885497
2,1,12,21, 0,13,45.00,60.00,WinterDesignDay
7,-20.0
8,-20.000010377544204
9,-20.00000247649434
10,0.0
11,0.0
12,257.5629438251061
13,-23.39499049419087
2,1,12,21, 0,14, 0.00,15.00,WinterDesignDay
7,-20.0
8,-20.000010377544204
9,-20.00000247649434
10,0.0
11,0.0
12,255.55990574122052
13,-20.500359501739183
2,1,12,21, 0,14,15.00,30.00,WinterDesignDay
7,-20.0
8,-20.000010377544204
9,-20.00000247649434
10,0.0
11,0.0
12,253.55206516004418
13,-17.63169497647771
2,1,12,21, 0,14,30.00,45.00,WinterDesignDay
7,-20.0
8,-20.000010377544204
9,-20.00000247649434
10,0.0
11,0.0
12,251.52992810729856
13,-14.792659101017055
2,1,12,21, 0,14,45.00,60.00,WinterDesignDay
7,-20.0
8,-20.000010377544204
9,-20.00000247649434
10,0.0
11,0.0
12,249.48457030657522
13,-11.98708708730705
2,1,12,21, 0,15, 0.00,15.00,WinterDesignDay
7,-20.0
8,-20.000010377544204
9,-20.00000247649434
10,0.0
11,0.0
12,247.40748003227014
13,-9.219036572220817
2,1,12,21, 0,15,15.00,30.00,WinterDesignDay
7,-20.0
8,-20.000010377544204
9,-20.00000247649434
10,0.0
11,0.0
12,245.29043789675816
13,-6.492834979181505
2,1,12,21, 0,15,30.00,45.00,WinterDesignDay
7,-20.0
8,-20.000010377544204
9,-20.00000247649434
10,0.0
11,0.0
12,243.12542833251274
13,-3.813125589190154
2,1,12,21, 0,15,45.00,60.00,WinterDesignDay
7,-20.0
8,-20.000010377544204
9,-20.00000247649434
10,0.0
11,0.0
12,240.90457993836367
13,-1.1849125964741223
2,1,12,21, 0,16, 0.00,15.00,WinterDesignDay
7,-20.0
8,-20.000010377544204
9,-20.00000247649434
10,0.0
11,0.0
12,238.6201338279152
13,1.3863950440824777
2,1,12,21, 0,16,15.00,30.00,WinterDesignDay
7,-20.0
8,-20.000010377544204
9,-20.00000247649434
10,0.0
11,0.0
12,236.26444077404324
13,3.894941677237159
2,1,12,21, 0,16,30.00,45.00,WinterDesignDay
7,-20.0
8,-20.000010377544204
9,-20.00000247649434
10,0.0
11,0.0
12,233.82998934102304
13,6.334386190972413
2,1,12,21, 0,16,45.00,60.00,WinterDesignDay
7,-20.0
8,-20.000010377544204
9,-20.00000247649434
10,0.0
11,0.0
12,231.30946832080198
13,8.697868386196502
2,1,12,21, 0,17, 0.00,15.00,WinterDesignDay
7,-20.0
8,-20.000010377544204
9,-20.00000247649434
10,0.0
11,0.0
12,228.69586755477914
13,10.977983182844753
2,1,12,21, 0,17,15.00,30.00,WinterDesignDay
7,-20.0
8,-20.000010377544204
9,-20.00000247649434
10,0.0
11,0.0
12,225.98262145972632
13,13.166766229077638
2,1,12,21, 0,17,30.00,45.00,WinterDesignDay
7,-20.0
8,-20.000010377544204
9,-20.00000247649434
10,0.0
11,0.0
12,223.16379903509795
13,15.255695383615327
2,1,12,21, 0,17,45.00,60.00,WinterDesignDay
7,-20.0
8,-20.000010377544204
9,-20.00000247649434
10,0.0
11,0.0
12,220.23434248329872
13,17.235713405338334
2,1,12,21, 0,18, 0.00,15.00,WinterDesignDay
7,-20.0
8,-20.000010377544204
9,-20.00000247649434
10,0.0
11,0.0
12,217.19035345990224
13,19.09727786496986
2,1,12,21, 0,18,15.00,30.00,WinterDesignDay
7,-20.0
8,-20.000010377544204
9,-20.00000247649434
10,0.0
11,0.0
12,214.02942106214874
13,20.830444579332294
2,1,12,21, 0,18,30.00,45.00,WinterDesignDay
7,-20.0
8,-20.000010377544204
9,-20.00000247649434
10,0.0
11,0.0
12,210.75097881098353
13,22.424990483258963
2,1,12,21, 0,18,45.00,60.00,WinterDesignDay
7,-20.0
8,-20.000010377544204
9,-20.00000247649434
10,0.0
11,0.0
12,207.35666930250622
13,23.870580483800737
2,1,12,21, 0,19, 0.00,15.00,WinterDesignDay
7,-20.0
8,-20.000010377544204
9,-20.00000247649434
10,0.0
11,0.0
12,203.85068570810145
13,25.156980195983174
2,1,12,21, 0,19,15.00,30.00,WinterDesignDay
7,-20.0
8,-20.000010377544204
9,-20.00000247649434
10,0.0
11,0.0
12,200.2400504642928
13,26.27431237620114
2,1,12,21, 0,19,30.00,45.00,WinterDesignDay
7,-20.0
8,-20.000010377544204
9,-20.00000247649434
10,0.0
11,0.0
12,196.53478565600307
13,27.21334944696114
2,1,12,21, 0,19,45.00,60.00,WinterDesignDay
7,-20.0
8,-20.000010377544204
9,-20.00000247649434
10,0.0
11,0.0
12,192.7479295461838
13,27.965828235342432
2,1,12,21, 0,20, 0.00,15.00,WinterDesignDay
7,-20.0
8,-20.000010377544204
9,-20.00000247649434
10,0.0
11,0.0
12,188.89536193278465
13,28.52476687177817
2,1,12,21, 0,20,15.00,30.00,WinterDesignDay
7,-20.0
8,-20.000010377544204
9,-20.00000247649434
10,0.0
11,0.0
12,184.99541865618923
13,28.88475903407211
2,1,12,21, 0,20,30.00,45.00,WinterDesignDay
7,-20.0
8,-20.000010377544204
9,-20.00000247649434
10,0.0
11,0.0
12,181.068301374917
13,29.042218795366605
2,1,12,21, 0,20,45.00,60.00,WinterDesignDay
7,-20.0
8,-20.000010377544204
9,-20.00000247649434
10,0.0
11,0.0
12,182.86468144688598
13,28.995551336446248
2,1,12,21, 0,21, 0.00,15.00,WinterDesignDay
7,-20.0
8,-20.000010377544204
9,-20.00000247649434
10,0.0
11,0.0
12,186.7819789036576
13,28.745231018105585
2,1,12,21, 0,21,15.00,30.00,WinterDesignDay
7,-20.0
8,-20.000010377544204
9,-20.00000247649434
10,0.0
11,0.0
12,190.6626855992854
13,28.293778020596616
2,1,12,21, 0,21,30.00,45.00,WinterDesignDay
7,-20.0
8,-20.000010377544204
9,-20.00000247649434
10,0.0
11,0.0
12,194.4873672014308
13,27.645636202534103
2,1,12,21, 0,21,45.00,60.00,WinterDesignDay
7,-20.0
8,-20.000010377544204
9,-20.00000247649434
10,0.0
11,0.0
12,198.23874868494374
13,26.806965748606448
2,1,12,21, 0,22, 0.00,15.00,WinterDesignDay
7,-20.0
8,-20.000010377544204
9,-20.00000247649434
10,0.0
11,0.0
12,201.9022136478937
13,25.78537246208368
2,1,12,21, 0,22,15.00,30.00,WinterDesignDay
7,-20.0
8,-20.000010377544204
9,-20.00000247649434
10,0.0
11,0.0
12,205.4660925145336
13,24.589599886144732
2,1,12,21, 0,22,30.00,45.00,WinterDesignDay
7,-20.0
8,-20.000010377544204
9,-20.00000247649434
10,0.0
11,0.0
12,208.92174610703862
13,23.22921055012354
2,1,12,21, 0,22,45.00,60.00,WinterDesignDay
7,-20.0
8,-20.000010377544204
9,-20.00000247649434
10,0.0
11,0.0
12,212.26347347681534
13,21.714279248394785
2,1,12,21, 0,23, 0.00,15.00,WinterDesignDay
7,-20.0
8,-20.000010377544204
9,-20.00000247649434
10,0.0
11,0.0
12,215.48828621869058
13,20.05511567306236
2,1,12,21, 0,23,15.00,30.00,WinterDesignDay
7,-20.0
8,-20.000010377544204
9,-20.00000247649434
10,0.0
11,0.0
12,218.5955956872146
13,18.26202735709043
2,1,12,21, 0,23,30.00,45.00,WinterDesignDay
7,-20.0
8,-20.000010377544204
9,-20.00000247649434
10,0.0
11,0.0
12,221.58685649070398
13,16.345127911379144
2,1,12,21, 0,23,45.00,60.00,WinterDesignDay
7,-20.0
8,-20.000010377544204
9,-20.00000247649434
10,0.0
11,0.0
12,224.46520209894476
13,14.314190694180867
2,1,12,21, 0,24, 0.00,15.00,WinterDesignDay
7,-20.0
8,-20.000010377544204
9,-20.00000247649434
10,0.0
11,0.0
12,227.23509901387123
13,12.178544631867323
2,1,12,21, 0,24,15.00,30.00,WinterDesignDay
7,-20.0
8,-20.000010377544204
9,-20.00000247649434
10,0.0
11,0.0
12,229.90203672845396
13,9.94700687794016
2,1,12,21, 0,24,30.00,45.00,WinterDesignDay
7,-20.0
8,-20.000010377544204
9,-20.00000247649434
10,0.0
11,0.0
12,232.47226284876518
13,7.627846116150261
2,1,12,21, 0,24,45.00,60.00,WinterDesignDay
7,-20.0
8,-20.000010377544204
9,-20.00000247649434
10,0.0
11,0.0
12,234.95256678977142
13,5.228770272462944
1,DENVER_STAPLETON ANN CLG .4% CONDNS DB=>MWB,  37.47, 122.12,  -8.00,   2.00
2,1, 7,21, 0, 1, 0.00,15.00,SummerDesignDay
7,21.408
8,-0.021979067957820543
9,10.854770494572614
10,100.39743320011289
11,735.5039028569167
12,272.2164114873201
13,32.42528930830144
2,1, 7,21, 0, 1,15.00,30.00,SummerDesignDay
7,21.18
8,-0.022936643394797705
9,10.75611242238056
10,96.93356944253578
11,710.1279023810428
12,274.3953251360073
13,29.454165055951663
2,1, 7,21, 0, 1,30.00,45.00,SummerDesignDay
7,20.952
8,-0.023892740364933357
9,10.657129546927889
10,92.8228442479228
11,680.0130445820021
12,276.5266787888884
13,26.49159098798395
2,1, 7,21, 0, 1,45.00,60.00,SummerDesignDay
7,20.724000000000004
8,-0.02484687625596345
9,10.557818335390225
10,87.89863233067759
11,643.9386453848687
12,278.6253450661619
13,23.541481086565998
2,1, 7,21, 0, 2, 0.00,15.00,SummerDesignDay
7,20.572000000000003
8,-0.025495231487657664
9,10.4914185558603
10,81.9351561905019
11,600.2506761222401
12,280.7044853216417
13,20.607625660281435
2,1, 7,21, 0, 2,15.00,30.00,SummerDesignDay
7,20.42
8,-0.026123827912305095
9,10.424886258282726
10,74.62326151976715
11,546.6842960248051
12,282.7759556054751
13,17.69377916985636
2,1, 7,21, 0, 2,30.00,45.00,SummerDesignDay
7,20.268
8,-0.02677050066653983
9,10.358193692899983
10,65.53984303085376
11,480.1398681751202
12,284.85062565950454
13,14.80373538896641
2,1, 7,21, 0, 2,45.00,60.00,SummerDesignDay
7,20.116
8,-0.02739602284164571
9,10.291365846301826
10,54.12567212976326
11,396.52052674340644
12,286.9386314091372
13,11.94139400513568
2,1, 7,21, 0, 3, 0.00,15.00,SummerDesignDay
7,20.002000000000002
8,-0.027870466876604723
9,10.241143497807125
10,39.75518641281177
11,291.2434494928346
12,289.0495755509447
13,9.110821626199215
2,1, 7,21, 0, 3,15.00,30.00,SummerDesignDay
7,19.888
8,-0.028363354063727128
9,10.190826523793294
10,22.315229042261382
11,163.4796581005699
12,291.19268642862437
13,6.316309320835119
2,1, 7,21, 0, 3,30.00,45.00,SummerDesignDay
7,19.774000000000004
8,-0.028837062436519796
9,10.140436408947032
10,5.192704882489026
11,38.04135808773397
12,293.3769419860199
13,3.5624281710718013
2,1, 7,21, 0, 3,45.00,60.00,SummerDesignDay
7,19.660000000000004
8,-0.029309885303586507
9,10.089964157756262
10,0.00012747358004488868
11,0.0009338616799822113
12,295.61116285644783
13,0.8540837659535079
2,1, 7,21, 0, 4, 0.00,15.00,SummerDesignDay
7,19.546000000000003
8,-0.029782411508761878
9,10.03940758127769
10,0.0
11,0.0
12,297.90407636002277
13,-1.8034299464779007
2,1, 7,21, 0, 4,15.00,30.00,SummerDesignDay
7,19.432000000000002
8,-0.030254152564936458
9,9.988766641783627
10,0.0
11,0.0
12,300.2643511775422
13,-4.404377560722561
2,1, 7,21, 0, 4,30.00,45.00,SummerDesignDay
7,19.318000000000005
8,-0.030725808322452756
9,9.93804083920533
10,0.0
11,0.0
12,302.700600658504
13,-6.9425305731840865
2,1, 7,21, 0, 4,45.00,60.00,SummerDesignDay
7,19.204
8,-0.0311965770368621
9,9.887230088216144
10,0.0
11,0.0
12,305.22135107500543
13,-9.411118600198828
2,1, 7,21, 0, 5, 0.00,15.00,SummerDesignDay
7,19.128
8,-0.03151697219630591
9,9.853306268178107
10,0.0
11,0.0
12,307.83496970001363
13,-11.80278568898381
2,1, 7,21, 0, 5,15.00,30.00,SummerDesignDay
7,19.052
8,-0.03183700164006803
9,9.819342285207393
10,0.0
11,0.0
12,310.5495465063153
13,-14.10955494507534
2,1, 7,21, 0, 5,30.00,45.00,SummerDesignDay
7,18.976000000000003
8,-0.03213719683733385
9,9.78535547658765
10,0.0
11,0.0
12,313.37272280160647
13,-16.322805839669897
2,1, 7,21, 0, 5,45.00,60.00,SummerDesignDay
7,18.900000000000002
8,-0.032456167098532385
9,9.751315570383362
10,0.0
11,0.0
12,316.3114606147029
13,-18.433269804488383
2,1, 7,21, 0, 6, 0.00,15.00,SummerDesignDay
7,18.976000000000003
8,-0.03213719683733385
9,9.78535547658765
10,0.0
11,0.0
12,319.37174863460166
13,-20.431050961894268
2,1, 7,21, 0, 6,15.00,30.00,SummerDesignDay
7,19.052
8,-0.03183700164006803
9,9.819342285207393
10,0.0
11,0.0
12,322.55824457126715
13,-22.305679879145355
2,1, 7,21, 0, 6,30.00,45.00,SummerDesignDay
7,19.128
8,-0.03151697219630591
9,9.853306268178107
10,0.0
11,0.0
12,325.8738605214573
13,-24.046208777100414
2,1, 7,21, 0, 6,45.00,60.00,SummerDesignDay
7,19.204
8,-0.0311965770368621
9,9.887230088216144
10,0.0
11,0.0
12,329.31930761176926
13,-25.641356257127686
2,1, 7,21, 0, 7, 0.00,15.00,SummerDesignDay
7,19.470000000000002
8,-0.030103832108314677
9,10.005651521014103
10,0.0
11,0.0
12,332.8926286172676
13,-27.07970785528069
2,1, 7,21, 0, 7,15.00,30.00,SummerDesignDay
7,19.736
8,-0.028988546706385447
9,10.123626740799239
10,0.0
11,0.0
12,336.5887612240167
13,-28.349975133316317
2,1, 7,21, 0, 7,30.00,45.00,SummerDesignDay
7,20.002000000000002
8,-0.027870466876604723
9,10.241143497807125
10,0.0
11,0.0
12,340.3991876423958
13,-29.441310306188477
2,1, 7,21, 0, 7,45.00,60.00,SummerDesignDay
7,20.268
8,-0.02677050066653983
9,10.358193692899983
10,0.0
11,0.0
12,344.3117346099626
13,-30.343665735804706
2,1, 7,21, 0, 8, 0.00,15.00,SummerDesignDay
7,20.914
8,-0.024064791762991256
9,10.640591685310923
10,0.0
11,0.0
12,348.31058694875446
13,-31.048178776843177
2,1, 7,21, 0, 8,15.00,30.00,SummerDesignDay
7,21.560000000000002
8,-0.021325501178246963
9,10.920369468480754
10,0.0
11,0.0
12,352.3765638782489
13,-31.547553958794406
2,1, 7,21, 0, 8,30.00,45.00,SummerDesignDay
7,22.206000000000003
8,-0.018593838515928673
9,11.197535268568641
10,0.0
11,0.0
12,356.48767886759947
13,-31.836408410707282
2,1, 7,21, 0, 8,45.00,60.00,SummerDesignDay
7,22.852000000000004
8,-0.015847600497864857
9,11.472138529438665
10,0.0
11,0.0
12,359.38003615961964
13,-31.911544924736386
2,1, 7,21, 0, 9, 0.00,15.00,SummerDesignDay
7,23.574000000000005
8,-0.012756746579540538
9,11.776057991747534
10,0.0
11,0.0
12,355.2515053163649
13,-31.77212155948511
2,1, 7,21, 0, 9,15.00,30.00,SummerDesignDay
7,24.296
8,-0.009650422757352794
9,12.07686472184798
10,0.0
11,0.0
12,351.1514819273047
13,-31.419697229140763
2,1, 7,21, 0, 9,30.00,45.00,SummerDesignDay
7,25.018
8,-0.0065290310513957265
9,12.374605927125794
10,0.0
11,0.0
12,347.1034400006223
13,-30.85814759704813
2,1, 7,21, 0, 9,45.00,60.00,SummerDesignDay
7,25.740000000000002
8,-0.003391714024866721
9,12.669327207719936
10,0.0
11,0.0
12,343.1286000164547
13,-30.093461703904282
2,1, 7,21, 0,10, 0.00,15.00,SummerDesignDay
7,26.386000000000003
8,0.0
9,12.930497467114062
10,0.0
11,0.0
12,339.2451793408495
13,-29.133443611699416
2,1, 7,21, 0,10,15.00,30.00,SummerDesignDay
7,27.032000000000004
8,0.0022687059532472483
9,13.18933184017491
10,0.0
11,0.0
12,335.46791736566195
13,-27.987352179490166
2,1, 7,21, 0,10,30.00,45.00,SummerDesignDay
7,27.678
8,0.0051056187671993675
9,13.445836968776982
10,0.0
11,0.0
12,331.807881733449
13,-26.66551470954386
2,1, 7,21, 0,10,45.00,60.00,SummerDesignDay
7,28.324
8,0.007961342253437606
9,13.700053760935651
10,0.0
11,0.0
12,328.27252490219
13,-25.1789471229081
2,1, 7,21, 0,11, 0.00,15.00,SummerDesignDay
7,28.894000000000002
8,0.01055468041285305
9,13.922497987617186
10,0.0
11,0.0
12,324.8659361361952
13,-23.539006283539305
2,1, 7,21, 0,11,15.00,30.00,SummerDesignDay
7,29.464000000000002
8,0.01341699624824034
9,14.143196674093069
10,0.0
11,0.0
12,321.5892242682433
13,-21.757091286330258
2,1, 7,21, 0,11,30.00,45.00,SummerDesignDay
7,30.034000000000002
8,0.01630993588244674
9,14.362191346111572
10,0.0
11,0.0
12,318.4409689340766
13,-19.844401906160563
2,1, 7,21, 0,11,45.00,60.00,SummerDesignDay
7,30.604000000000003
8,0.01918951170413376
9,14.5794803490077
10,0.0
11,0.0
12,315.4176881820477
13,-17.811755272897468
2,1, 7,21, 0,12, 0.00,15.00,SummerDesignDay
7,30.984
8,0.02113003203749058
9,14.723417238691232
10,0.0
11,0.0
12,312.51428402050766
13,-15.66945676800256
2,1, 7,21, 0,12,15.00,30.00,SummerDesignDay
7,31.364
8,0.02307300895524774
9,14.86661478499068
10,0.0
11,0.0
12,309.72444116983297
13,-13.42721813269261
2,1, 7,21, 0,12,30.00,45.00,SummerDesignDay
7,31.744
8,0.024997395482169765
9,15.009068746431343
10,0.0
11,0.0
12,307.0409659654461
13,-11.094114490773572
2,1, 7,21, 0,12,45.00,60.00,SummerDesignDay
7,32.124
8,0.02694851783638546
9,15.15080970539794
10,0.0
11,0.0
12,304.45606114699785
13,-8.678571943350072
2,1, 7,21, 0,13, 0.00,15.00,SummerDesignDay
7,32.428000000000004
8,0.02848548857517026
9,15.263669336263796
10,0.0
11,0.0
12,301.96153813887935
13,-6.188378122142322
2,1, 7,21, 0,13,15.00,30.00,SummerDesignDay
7,32.732
8,0.030069025018985833
9,15.376093196028137
10,0.0
11,0.0
12,299.54897180667996
13,-3.630709215453149
2,1, 7,21, 0,13,30.00,45.00,SummerDesignDay
7,33.036
8,0.03160979986832453
9,15.488039962975913
10,0.0
11,0.0
12,297.20980415521467
13,-1.0121682382349566
2,1, 7,21, 0,13,45.00,60.00,SummerDesignDay
7,33.34
8,0.03319878940331173
9,15.599556872929663
10,0.11265636181256497
11,0.8253118745540726
12,294.935403591546
13,1.661169461292637
2,1, 7,21, 0,14, 0.00,15.00,SummerDesignDay
7,33.53
8,0.03418039107227346
9,15.669020905110786
10,9.718063375563359
11,71.19378766079527
12,292.71708568153736
13,4.383706368703758
2,1, 7,21, 0,14,15.00,30.00,SummerDesignDay
7,33.72
8,0.03511895191738461
9,15.738287074713133
10,27.798879886080915
11,203.65246400781655
12,290.5461001202267
13,7.150270612581638
2,1, 7,21, 0,14,30.00,45.00,SummerDesignDay
7,33.910000000000004
8,0.03610434082800029
9,15.80740149795668
10,44.40538195881117
11,325.3104257502174
12,288.41358712929673
13,9.956062594783033
2,1, 7,21, 0,14,45.00,60.00,SummerDesignDay
7,34.1
8,0.03708817590154621
9,15.876342433183456
10,57.83136958421329
11,423.6681823525129
12,286.31050479823364
13,12.796600959187764
2,1, 7,21, 0,15, 0.00,15.00,SummerDesignDay
7,34.1
8,0.03708817590154621
9,15.876342433183456
10,68.48036569650014
11,501.68191191155023
12,284.2275270230653
13,15.667667847475998
2,1, 7,21, 0,15,15.00,30.00,SummerDesignDay
7,34.1
8,0.03708817590154621
9,15.876342433183456
10,76.98012204986287
11,563.9504756782196
12,282.15490962070936
13,18.565252871724528
2,1, 7,21, 0,15,30.00,45.00,SummerDesignDay
7,34.1
8,0.03708817590154621
9,15.876342433183456
10,83.84904593568903
11,614.2716857472292
12,280.08231979656153
13,21.48549471663056
2,1, 7,21, 0,15,45.00,60.00,SummerDesignDay
7,34.1
8,0.03708817590154621
9,15.876342433183456
10,89.4727572697128
11,655.4705640738366
12,277.998621239507
13,24.42461871243113
2,1, 7,21, 0,16, 0.00,15.00,SummerDesignDay
7,33.872
8,0.03591554554891385
9,15.79359659419615
10,94.13241212083133
11,689.6068384757205
12,275.8916034534588
13,27.378868023123733
2,1, 7,21, 0,16,15.00,30.00,SummerDesignDay
7,33.644
8,0.03474509081539958
9,15.710600647096353
10,98.03385202508846
11,718.1884882737116
12,273.74763914530143
13,30.344425180960194
2,1, 7,21, 0,16,30.00,45.00,SummerDesignDay
7,33.416000000000004
8,0.033573982815355674
9,15.62735349319182
10,101.32959572574704
11,742.332854094488
12,271.5512470745021
13,33.31731943831282
2,1, 7,21, 0,16,45.00,60.00,SummerDesignDay
7,33.188
8,0.03240362156654454
9,15.54385498539016
10,104.13426669734804
11,762.8796587297255
12,269.2845290468814
13,36.29331361435006
2,1, 7,21, 0,17, 0.00,15.00,SummerDesignDay
7,32.884
8,0.030816935923830353
9,15.432111858959141
10,106.53523952725817
11,780.4690017115572
12,266.9264378015855
13,39.26776150704094
2,1, 7,21, 0,17,15.00,30.00,SummerDesignDay
7,32.58
8,0.029277051142052556
9,15.319939145880637
10,108.600008295478
11,795.5953394984583
12,264.4518162797674
13,42.235423098894856
2,1, 7,21, 0,17,30.00,45.00,SummerDesignDay
7,32.276
8,0.02769474195500873
9,15.207286410073866
10,110.38133922657771
11,808.6452334085162
12,261.8301270039805
13,45.190219069097
2,1, 7,21, 0,17,45.00,60.00,SummerDesignDay
7,31.972
8,0.026159190324724597
9,15.094196221726495
10,111.92092124218439
11,819.9240932872342
12,259.0237624033739
13,48.12489758024782
2,1, 7,21, 0,18, 0.00,15.00,SummerDesignDay
7,31.592000000000002
8,0.024231238506139275
9,14.952177581380584
10,113.25198790503697
11,829.675385668778
12,255.98579451910356
13,51.03057355322567
2,1, 7,21, 0,18,15.00,30.00,SummerDesignDay
7,31.212000000000003
8,0.022286814834581926
9,14.809418742921483
10,114.40122571699435
11,838.0946138209619
12,252.65699407135267
13,53.896081835857586
2,1, 7,21, 0,18,30.00,45.00,SummerDesignDay
7,30.832
8,0.020344685206871767
9,14.665926047216926
10,115.39018016581035
11,845.3396183361874
12,248.9619510444883
13,56.70705883968496
2,1, 7,21, 0,18,45.00,60.00,SummerDesignDay
7,30.452
8,0.01842849464211106
9,14.521704698841848
10,116.23630305773648
11,851.538249809841
12,244.80423377491692
13,59.44463185819895
2,1, 7,21, 0,19, 0.00,15.00,SummerDesignDay
7,29.882
8,0.015528773697315803
9,14.303954397857389
10,116.95373980782033
11,856.7941364686949
12,240.06090871832808
13,62.08355765847078
2,1, 7,21, 0,19,15.00,30.00,SummerDesignDay
7,29.312
8,0.012660255754057607
9,14.084516672006059
10,117.55392533583712
11,861.191049658843
12,234.57780997108904
13,64.58964026671022
2,1, 7,21, 0,19,30.00,45.00,SummerDesignDay
7,28.742
8,0.009804983027987572
9,13.86334545686828
10,118.0460368459289
11,864.7962208746435
12,228.16948256339884
13,66.91635993009481
2,1, 7,21, 0,19,45.00,60.00,SummerDesignDay
7,28.172
8,0.007291065373143759
9,13.640447670956009
10,118.43733773996868
11,867.6628612416737
12,220.6328155877562
13,69.00108203765228
2,1, 7,21, 0,20, 0.00,15.00,SummerDesignDay
7,27.754
8,0.005445777710070921
9,13.475866075671734
10,118.73343709431614
11,869.8320624235595
12,211.7908043866106
13,70.76240516437008
2,1, 7,21, 0,20,15.00,30.00,SummerDesignDay
7,27.336000000000002
8,0.003605861481957107
9,13.310329430010995
10,118.93848212462035
11,871.3342066043729
12,201.58495046471708
13,72.10249123267154
2,1, 7,21, 0,20,30.00,45.00,SummerDesignDay
7,26.918
8,0.0
9,13.14382695431685
10,119.05529595077175
11,872.1899757441153
12,190.20727704822428
13,72.92036447219112
2,1, 7,21, 0,20,45.00,60.00,SummerDesignDay
7,26.5
8,0.0
9,12.97635391950752
10,119.08546912975126
11,872.4110221413553
12,181.814656479427
13,73.13897351023756
2,1, 7,21, 0,21, 0.00,15.00,SummerDesignDay
7,26.158
8,0.0
9,12.838591840787654
10,119.0294104136662
11,872.0003402827111
12,193.71723511680497
13,72.73531599223624
2,1, 7,21, 0,21,15.00,30.00,SummerDesignDay
7,25.816000000000003
8,-0.003054368502963176
9,12.700180804945377