Program Version,EnergyPlus, Version 22.2.0-c249759bad, YMD=2025.11.12 19:08
1,5,Environment Title[],Latitude[deg],Longitude[deg],Time Zone[],Elevation[m]
2,8,Day of Simulation[],Month[],Day of Month[],DST Indicator[1=yes 0=no],Hour[],StartMinute[],EndMinute[],DayType
3,5,Cumulative Day of Simulation[],Month[],Day of Month[],DST Indicator[1=yes 0=no],DayType  ! When Daily Report Variables Requested
4,2,Cumulative Days of Simulation[],Month[]  ! When Monthly Report Variables Requested
5,1,Cumulative Days of Simulation[] ! When Run Period Report Variables Requested
6,1,Calendar Year of Simulation[] ! When Annual Report Variables Requested
7,1,Environment,Site Outdoor Air Drybulb Temperature [C] !TimeStep
8,1,Environment,Site Outdoor Air Barometric Pressure [Pa] !TimeStep
9,1,Environment,Site Wind Speed [m/s] !TimeStep
10,1,Environment,Site Wind Direction [deg] !TimeStep
11,1,BLOCK `ROOM1` STOREY 0,Zone Mean Air Temperature [C] !TimeStep
12,1,BLOCK `ROOM2` STOREY 0,Zone Mean Air Temperature [C] !TimeStep
13,1,BLOCK `ROOM1` STOREY 0,AFN Node Total Pressure [Pa] !TimeStep
14,1,BLOCK `ROOM2` STOREY 0,AFN Node Total Pressure [Pa] !TimeStep
15,1,AFN_EXTERNAL_NODE_NORTH_ROOM1,AFN Node Total Pressure [Pa] !TimeStep
16,1,AFN_EXTERNAL_NODE_NORTH_ROOM1,AFN Node Wind Pressure [Pa] !TimeStep
17,1,AFN_EXTERNAL_NODE_SOUTH_ROOM1,AFN Node Total Pressure [Pa] !TimeStep
18,1,AFN_EXTERNAL_NODE_SOUTH_ROOM1,AFN Node Wind Pressure [Pa] !TimeStep
19,1,AFN_EXTERNAL_NODE_NORTH_ROOM2,AFN Node Total Pressure [Pa] !TimeStep
20,1,AFN_EXTERNAL_NODE_NORTH_ROOM2,AFN Node Wind Pressure [Pa] !TimeStep
21,1,AFN_EXTERNAL_NODE_SOUTH_ROOM2,AFN Node Total Pressure [Pa] !TimeStep
22,1,AFN_EXTERNAL_NODE_SOUTH_ROOM2,AFN Node Wind Pressure [Pa] !TimeStep
23,1,DOOR__BLOCK `ROOM1` STOREY 0 WALL 0001,AFN Linkage Node 1 to Node 2 Volume Flow Rate [m3/s] !TimeStep
24,1,DOOR__BLOCK `ROOM1` STOREY 0 WALL 0001,AFN Linkage Node 2 to Node 1 Volume Flow Rate [m3/s] !TimeStep
25,1,DOOR__BLOCK `ROOM1` STOREY 0 WALL 0003,AFN Linkage Node 1 to Node 2 Volume Flow Rate [m3/s] !TimeStep
26,1,DOOR__BLOCK `ROOM1` STOREY 0 WALL 0003,AFN Linkage Node 2 to Node 1 Volume Flow Rate [m3/s] !TimeStep
27,1,DOOR__BLOCK `ROOM2` STOREY 0 WALL 0001,AFN Linkage Node 1 to Node 2 Volume Flow Rate [m3/s] !TimeStep
28,1,DOOR__BLOCK `ROOM2` STOREY 0 WALL 0001,AFN Linkage Node 2 to Node 1 Volume Flow Rate [m3/s] !TimeStep
29,1,DOOR__BLOCK `ROOM2` STOREY 0 WALL 0003,AFN Linkage Node 1 to Node 2 Volume Flow Rate [m3/s] !TimeStep
30,1,DOOR__BLOCK `ROOM2` STOREY 0 WALL 0003,AFN Linkage Node 2 to Node 1 Volume Flow Rate [m3/s] !TimeStep
31,1,DOOR__BLOCK `ROOM1` STOREY 0 WALL 0001,AFN Surface Venting Availability Status [] !TimeStep
32,1,DOOR__BLOCK `ROOM1` STOREY 0 WALL 0003,AFN Surface Venting Availability Status [] !TimeStep
33,1,DOOR__BLOCK `ROOM2` STOREY 0 WALL 0001,AFN Surface Venting Availability Status [] !TimeStep
34,1,DOOR__BLOCK `ROOM2` STOREY 0 WALL 0003,AFN Surface Venting Availability Status [] !TimeStep
35,1,BLOCK `ROOM1` STOREY 0,AFN Zone Ventilation Sensible Heat Gain Rate [W] !TimeStep
36,1,BLOCK `ROOM1` STOREY 0,AFN Zone Mixing Sensible Heat Gain Rate [W] !TimeStep
37,1,BLOCK `ROOM1` STOREY 0,AFN Zone Ventilation Sensible Heat Loss Rate [W] !TimeStep
38,1,BLOCK `ROOM1` STOREY 0,AFN Zone Mixing Sensible Heat Loss Rate [W] !TimeStep
39,1,BLOCK `ROOM2` STOREY 0,AFN Zone Ventilation Sensible Heat Gain Rate [W] !TimeStep
40,1,BLOCK `ROOM2` STOREY 0,AFN Zone Mixing Sensible Heat Gain Rate [W] !TimeStep
41,1,BLOCK `ROOM2` STOREY 0,AFN Zone Ventilation Sensible Heat Loss Rate [W] !TimeStep
42,1,BLOCK `ROOM2` STOREY 0,AFN Zone Mixing Sensible Heat Loss Rate [W] !TimeStep
43,1,BLOCK `ROOM1` STOREY 0,AFN Zone Ventilation Volume [m3] !TimeStep
44,1,BLOCK `ROOM1` STOREY 0,AFN Zone Ventilation Air Change Rate [ach] !TimeStep
45,1,BLOCK `ROOM1` STOREY 0,AFN Zone Mixing Volume [m3] !TimeStep
46,1,BLOCK `ROOM2` STOREY 0,AFN Zone Ventilation Volume [m3] !TimeStep
47,1,BLOCK `ROOM2` STOREY 0,AFN Zone Ventilation Air Change Rate [ach] !TimeStep
48,1,BLOCK `ROOM2` STOREY 0,AFN Zone Mixing Volume [m3] !TimeStep
End of Data Dictionary
1,JULY_1,  37.62,-122.40,  -8.00,   2.00
2,1, 7, 1, 0, 1, 0.00,15.00,Saturday
7,13.150000000000002
8,101450.0
9,6.45
10,285.0
11,13.487411132589301
12,13.466767972037387
13,-2.051998580039508
14,-2.0509827177569266
15,-1.2975015304897581
16,-1.2975015304897581
17,-2.7946186810548634
18,-2.7946186810548634
19,-1.2975015304897581
20,-1.2975015304897581
21,-2.794618681054864
22,-2.794618681054864
23,0.0
24,0.0691416161011488
25,0.06914594507813171
26,0.0
27,0.0
28,0.06914280099329093
29,0.06914717064456508
30,0.0
31,1.0
32,1.0
33,1.0
34,1.0
35,0.0
36,0.0
37,28.990076697513082
38,0.0
39,0.0
40,0.0
41,27.216879025950707
42,0.0
43,62.32587947060283
44,83.10117262747045
45,0.0
46,62.32245887054836
47,83.09661182739781
48,0.0
2,1, 7, 1, 0, 1,15.00,30.00,Saturday
7,13.5
8,101500.0
9,5.9
10,280.0
11,13.799331402662009
12,13.776658563968716
13,-1.9330237364629206
14,-1.931864384535445
15,-1.5016886976577148
16,-1.5016886976577148
17,-2.335960196356444
18,-2.335960196356444
19,-1.5016886976577148
20,-1.5016886976577148
21,-2.335960196356445
22,-2.335960196356445
23,0.0
24,0.05162169748707025
25,0.05162170084818674
26,0.0
27,0.0
28,0.05162271853719229
29,0.051622721945761216
30,0.0
31,1.0
32,1.0
33,1.0
34,1.0
35,0.0
36,0.0
37,19.18861361801082
38,0.0
39,0.0
40,0.0
41,17.735527104805893
42,0.0
43,46.527306733967706
44,62.0364089786236
45,0.0
46,46.524550683486936
47,62.03273424464925
48,0.0
2,1, 7, 1, 0, 1,30.00,45.00,Saturday
7,13.849999999999998
8,101550.0
9,5.35
10,275.0
11,14.12102453209623
12,14.094116798759822
13,-1.7596151996348361
14,-1.7582312787418135
15,-1.5761396178668703
16,-1.5761396178668703
17,-1.9187786652292327
18,-1.9187786652292327
19,-1.5761396178668703
20,-1.5761396178668703
21,-1.9187786652292336
22,-1.9187786652292336
23,0.0
24,0.03309093867904759
25,0.03309366696370074
26,0.0
27,0.0
28,0.03309093381529882
29,0.033095236651623325
30,0.0
31,1.0
32,1.0
33,1.0
34,1.0
35,0.0
36,0.0
37,11.129577962445815
38,0.0
39,0.0
40,0.0
41,10.024614717811566
42,0.0
43,29.822691027000815
44,39.76358803600108
45,0.0
46,29.81989328067792
47,39.75985770757056
48,0.0
2,1, 7, 1, 0, 1,45.00,60.00,Saturday
7,14.2
8,101600.0
9,4.8
10,270.0
11,14.602774707692394
12,14.549297625316168
13,-1.5583056318504513
14,-1.555521965482433
15,-1.5429549534374045
16,-1.5429549534374045
17,-1.5429549534374039
18,-1.5429549534374039
19,-1.5429549534374045
20,-1.5429549534374045
21,-1.5429549534374045
22,-1.5429549534374045
23,0.001026064699770904
24,0.0010262275320392883
25,0.0010260646997701985
26,0.0010262275320399939
27,0.0009240347338344682
28,0.0009241446924794939
29,0.0009240347338344682
30,0.0009241446924794939
31,1.0
32,1.0
33,1.0
34,1.0
35,0.0
36,0.0
37,0.9823308067254691
38,0.0
39,0.0
40,0.0
41,0.7579478790062472
42,0.0
43,1.8506469000689938
44,2.4675292000919917
45,0.0
46,1.6662525967538468
47,2.221670129005129
48,0.0
2,1, 7, 1, 0, 2, 0.00,15.00,Saturday
7,13.95
8,101600.0
9,4.75
10,272.5
11,14.316070488760717
12,14.288910140697674
13,-1.4845787011484963
14,-1.4814291654179703
15,-1.3774768121489434
16,-1.3774768121489434
17,-1.5125235584380545
18,-1.5125235584380545
19,-1.3774768121489434
20,-1.3774768121489434
21,-1.5125235584380552
22,-1.5125235584380552
23,0.0
24,0.02075794704667781
25,0.020757947058326995
26,0.0
27,0.0
28,0.020759501344369352
29,0.0207595013534027
30,0.0
31,1.0
32,1.0
33,1.0
34,1.0
35,0.0
36,0.0
37,9.431532448236908
38,0.0
39,0.0
40,0.0
41,8.732420197510239
42,0.0
43,18.705827429727766
44,24.94110323963702
45,0.0
46,18.705465907781754
47,24.94062121037567
48,0.0
2,1, 7, 1, 0, 2,15.00,30.00,Saturday
7,13.7
8,101600.0
9,4.699999999999999
10,275.0
11,14.026361894240571
12,14.001344992968816
13,-1.3840298265772455
14,-1.3825994009713227
15,-1.2176551189753566
16,-1.2176551189753566
17,-1.4823627535352166
18,-1.4823627535352166
19,-1.2176551189753566
20,-1.2176551189753566
21,-1.4823627535352166
22,-1.4823627535352166
23,0.0
24,0.02905319660180912
25,0.02905319660718773
26,0.0
27,0.0
28,0.029053963372061935
29,0.029053963376548916
30,0.0
31,1.0
32,1.0
33,1.0
34,1.0
35,0.0
36,0.0
37,11.77863887615852
38,0.0
39,0.0
40,0.0
41,10.876047689411806
42,0.0
43,26.177301063368315
44,34.90306808449109
45,0.0
46,26.175710743497127
47,34.90094765799617
48,0.0
2,1, 7, 1, 0, 2,30.00,45.00,Saturday
7,13.45
8,101600.0
9,4.6499999999999995
10,277.5
11,13.82429375708546
12,13.798924781096225
13,-1.290350369638885
14,-1.2890617977958894
15,-1.063418130500371
16,-1.063418130500371
17,-1.452473544098067
18,-1.452473544098067
19,-1.063418130500371
20,-1.063418130500371
21,-1.4524735440980674
22,-1.4524735440980674
23,0.0
24,0.03520572341642046
25,0.03520572343579152
26,0.0
27,0.0
28,0.03520652115270138
29,0.035206521174134926
30,0.0
31,1.0
32,1.0
33,1.0
34,1.0
35,0.0
36,0.0
37,16.383119974249375
38,0.0
39,0.0
40,0.0
41,15.273046834749582
42,0.0
43,31.726197864988766
44,42.301597153318355
45,0.0
46,31.724111389365834
47,42.29881518582111
48,0.0
2,1, 7, 1, 0, 2,45.00,60.00,Saturday
7,13.2
8,101600.0
9,4.6
10,280.0
11,13.612220636971426
12,13.589394654135846
13,-1.2034348088393845
14,-1.2021278922678
15,-0.914693744298069
16,-0.914693744298069
17,-1.4228569355747733
18,-1.4228569355747733
19,-0.914693744298069
20,-0.914693744298069
21,-1.4228569355747738
22,-1.4228569355747738
23,0.0
24,0.04021355985323131
25,0.04021356159907722
26,0.0
27,0.0
28,0.04021447147207324
29,0.0402144732614164
30,0.0
31,1.0
32,1.0
33,1.0
34,1.0
35,0.0
36,0.0
37,20.6273028410439
38,0.0
39,0.0
40,0.0
41,19.485544438413374
42,0.0
43,36.2439398342152
44,48.32525311228693
45,0.0
46,36.24187661009169
47,48.32250214678891
48,0.0
2,1, 7, 1, 0, 3, 0.00,15.00,Saturday
7,12.924999999999999
8,101575.0
9,4.5249999999999995
10,280.0
11,13.410090618803391
12,13.387718943058186
13,-1.1701155305073805
14,-1.1689352538533166
15,-0.8858862936817159
16,-0.8858862936817159
17,-1.3780453457271127
18,-1.3780453457271127
19,-0.8858862936817159
20,-0.8858862936817159
21,-1.3780453457271131
22,-1.3780453457271131
23,0.0
24,0.039560379618275694
25,0.039560381205194395
26,0.0
27,0.0
28,0.039561192557921274
29,0.03956119418246305
30,0.0
31,1.0
32,1.0
33,1.0
34,1.0
35,0.0
36,0.0
37,23.895903354234107
38,0.0
39,0.0
40,0.0
41,22.79432734980116
42,0.0
43,35.66433604802889
44,47.55244806403852
45,0.0
46,35.66228465774282
47,47.549712876990434
48,0.0
2,1, 7, 1, 0, 3,15.00,30.00,Saturday
7,12.649999999999999
8,101550.0
9,4.449999999999999
10,280.0
11,13.210518081372214
12,13.188340528972752
13,-1.1377420402797667
14,-1.136583638832002
15,-0.8575139685220894
16,-0.8575139685220894
17,-1.3339106177010271
18,-1.3339106177010271
19,-0.8575139685220894
20,-0.8575139685220894
21,-1.333910617701028
22,-1.333910617701028
23,0.0
24,0.038906839695158804
25,0.038906841117452774
26,0.0
27,0.0
28,0.03890762797986311
29,0.03890762943726289
30,0.0
31,1.0
32,1.0
33,1.0
34,1.0
35,0.0
36,0.0
37,27.174160141352722
38,0.0
39,0.0
40,0.0
41,26.099511551377567
42,0.0
43,35.084459574356
44,46.779279432474674
45,0.0
46,35.082453177496426
47,46.7766042366619
48,0.0
2,1, 7, 1, 0, 3,30.00,45.00,Saturday
7,12.375
8,101525.0
9,4.375
10,280.0
11,13.009382674968556
12,12.98769147045763
13,-1.1060118518285733
14,-1.1048619883694055
15,-0.8295780710569012
16,-0.8295780710569012
17,-1.2904547771996233
18,-1.2904547771996233
19,-0.8295780710569012
20,-0.8295780710569012
21,-1.2904547771996238
22,-1.2904547771996238
23,0.0
24,0.03825315190063536
25,0.038253153163494105
26,0.0
27,0.0
28,0.038253925282492475
29,0.03825392657829682
30,0.0
31,1.0
32,1.0
33,1.0
34,1.0
35,0.0
36,0.0
37,30.2593780465953
38,0.0
39,0.0
40,0.0
41,29.225321540271207
42,0.0
43,34.50396465694342
44,46.00528620925789
45,0.0
46,34.502046733539466
47,46.00272897805262
48,0.0
2,1, 7, 1, 0, 3,45.00,60.00,Saturday
7,12.1
8,101500.0
9,4.3
10,280.0
11,12.807294125177439
12,12.786145537544225
13,-1.074779600046362
14,-1.0736531285967144
15,-0.8020799028099065
16,-0.8020799028099065
17,-1.2476798488154095
18,-1.2476798488154095
19,-0.8020799028099065
20,-0.8020799028099065
21,-1.24767984881541
22,-1.24767984881541
23,0.0
24,0.03759941317709325
25,0.037599414290463685
26,0.0
27,0.0
28,0.03760016227202111
29,0.03760016341576618
30,0.0
31,1.0
32,1.0
33,1.0
34,1.0
35,0.0
36,0.0
37,33.18363635433841
38,0.0
39,0.0
40,0.0
41,32.192063835241505
42,0.0
43,33.92301952220603
44,45.23069269627471
45,0.0
46,33.92118647053923
47,45.228248627385646
48,0.0
2,1, 7, 1, 0, 4, 0.00,15.00,Saturday
7,11.85
8,101500.0
9,4.25
10,282.5
11,12.564724455252138
12,12.545520708881382
13,-0.999890374951242
14,-0.9987921467368787
15,-0.6753974618729282
16,-0.6753974618729282
17,-1.2200728343510958
18,-1.2200728343510958
19,-0.6753974618729282
20,-0.6753974618729282
21,-1.2200728343510963
22,-1.2200728343510963
23,0.0
24,0.04154723975122845
25,0.04154727609408425
26,0.0
27,0.0
28,0.041548035774450355
29,0.04154807274887444
30,0.0
31,1.0
32,1.0
33,1.0
34,1.0
35,0.0
36,0.0
37,37.08475433355107
38,0.0
39,0.0
40,0.0
41,36.089025102779424
42,0.0
43,37.485908970740226
44,49.98121196098697
45,0.0
46,37.48410759015308
47,49.97881012020411
48,0.0
2,1, 7, 1, 0, 4,15.00,30.00,Saturday
7,11.6
8,101500.0
9,4.199999999999999
10,285.0
11,12.321658407459909
12,12.304183048598905
13,-0.9257423967188971
14,-0.9247447724693199
15,-0.5537747761147058
16,-0.5537747761147058
17,-1.192745671631674
18,-1.192745671631674
19,-0.5537747761147058
20,-0.5537747761147058
21,-1.1927456716316742
22,-1.1927456716316742
23,0.0
24,0.04497667551447451
25,0.04497775449693219
26,0.0
27,0.0
28,0.04497744214526768
29,0.04497854079591047
30,0.0
31,1.0
32,1.0
33,1.0
34,1.0
35,0.0
36,0.0
37,40.570071059621434
38,0.0
39,0.0
40,0.0
41,39.58831904665458
42,0.0
43,40.58118638406005
44,54.10824851208006
45,0.0
46,40.57939384073077
47,54.1058584543077
48,0.0
2,1, 7, 1, 0, 4,30.00,45.00,Saturday
7,11.35
8,101500.0
9,4.1499999999999995
10,287.5
11,12.0821270994029
12,12.0660646653419
13,-0.8542631374905382
14,-0.8533551261334903
15,-0.4371372621322759
16,-0.4371372621322759
17,-1.1656993656860686
18,-1.1656993656860686
19,-0.4371372621322759
20,-0.4371372621322759
21,-1.1656993656860692
22,-1.1656993656860692
23,0.0
24,0.048002425872765396
25,0.04800242608925682
26,0.0
27,0.0
28,0.0480031764268944
29,0.04800317665764226
30,0.0
31,1.0
32,1.0
33,1.0
34,1.0
35,0.0
36,0.0
37,43.96519333458304
38,0.0
39,0.0
40,0.0
41,43.00129543228196
42,0.0
43,43.312925953860784
44,57.75056793848105
45,0.0
46,43.311164038631325
47,57.7482187181751
48,0.0
2,1, 7, 1, 0, 4,45.00,60.00,Saturday
7,11.1
8,101500.0
9,4.1
10,290.0
11,11.84238344043104
12,11.82758336727433
13,-0.7855473010200277
14,-0.7847130193109708
15,-0.32540997761311785
16,-0.32540997761311785
17,-1.1389349216459117
18,-1.1389349216459117
19,-0.32540997761311785
20,-0.32540997761311785
21,-1.1389349216459124
22,-1.1389349216459124
23,0.0
24,0.050697683142903724
25,0.050698505255558524
26,0.0
27,0.0
28,0.05069844985373634
29,0.050699191880452694
30,0.0
31,1.0
32,1.0
33,1.0
34,1.0
35,0.0
36,0.0
37,47.124712047301585
38,0.0
39,0.0
40,0.0
41,46.185937531929675
42,0.0
43,45.746629548490525
44,60.99550606465403
45,0.0
46,45.74494565574094
47,60.99326087432126
48,0.0
2,1, 7, 1, 0, 5, 0.00,15.00,Saturday
7,11.274999999999999
8,101500.0
9,4.1
10,290.0
11,11.915066826607127
12,11.901362014402507
13,-0.7611598422828403
14,-0.7603891463783519
15,-0.3252037463463598
16,-0.3252037463463598
17,-1.1382131122122585
18,-1.1382131122122585
19,-0.3252037463463598
20,-0.3252037463463598
21,-1.1382131122122592
22,-1.1382131122122592
23,0.0
24,0.05071880059416952
25,0.05071882297883103
26,0.0
27,0.0
28,0.05071946712945309
29,0.05071948641876904
30,0.0
31,1.0
32,1.0
33,1.0
34,1.0
35,0.0
36,0.0
37,40.62192696560538
38,0.0
39,0.0
40,0.0
41,39.752671635580356
42,0.0
43,45.7493040417477
44,60.999072055663596
45,0.0
46,45.74770579411746
47,60.996941058823275
48,0.0
2,1, 7, 1, 0, 5,15.00,30.00,Saturday
7,11.45
8,101500.0
9,4.1
10,290.0
11,12.015467517530857
12,12.002893377662707
13,-0.7551079403723674
14,-0.7543946211589232
15,-0.32499813040345477
16,-0.32499813040345477
17,-1.137493456412091
18,-1.137493456412091
19,-0.32499813040345477
20,-0.32499813040345477
21,-1.1374934564120915
22,-1.1374934564120915
23,0.0
24,0.05072361386147807
25,0.05072362095937051
26,0.0
27,0.0
28,0.050724228920004055
29,0.05072423496517022
30,0.0
31,1.0
32,1.0
33,1.0
34,1.0
35,0.0
36,0.0
37,35.86890148261947
38,0.0
39,0.0
40,0.0
41,35.0717202166453
42,0.0
43,45.74156377156375
44,60.98875169541833
45,0.0
46,45.74010145810255
47,60.98680194413674
48,0.0
2,1, 7, 1, 0, 5,30.00,45.00,Saturday
7,11.625000000000002
8,101500.0
9,4.1
10,290.0
11,12.106272327840943
12,12.094668403073847
13,-0.7508702346321314
14,-0.7502162410455171
15,-0.32479313693587475
16,-0.32479313693587475
17,-1.1367759792755612
18,-1.1367759792755612
19,-0.32479313693587475
20,-0.32479313693587475
21,-1.1367759792755616
22,-1.1367759792755616
23,0.0
24,0.05072685710272923
25,0.05072686002121722
26,0.0
27,0.0
28,0.050727420281478086
29,0.05072742275378893
30,0.0
31,1.0
32,1.0
33,1.0
34,1.0
35,0.0
36,0.0
37,30.51147212155664
38,0.0
39,0.0
40,0.0
41,29.776142643297298
42,0.0
43,45.730936280823634
44,60.97458170776485
45,0.0
46,45.729583686877476
47,60.97277824916997
48,0.0
2,1, 7, 1, 0, 5,45.00,60.00,Saturday
7,11.8
8,101500.0
9,4.1
10,290.0
11,12.206293914805679
12,12.195594043082982
13,-0.7460254517920403
14,-0.7454223124477013
15,-0.3245887731886718
16,-0.3245887731886718
17,-1.1360607061603507
18,-1.1360607061603507
19,-0.3245887731886718
20,-0.3245887731886718
21,-1.1360607061603512
22,-1.1360607061603512
23,0.0
24,0.050730621969568034
25,0.050730622859439065
26,0.0
27,0.0
28,0.05073114066776837
29,0.05073114141112563
30,0.0
31,1.0
32,1.0
33,1.0
34,1.0
35,0.0
36,0.0
37,25.74417612811453
38,0.0
39,0.0
40,0.0
41,25.06645184340327
42,0.0
43,45.722276095220046
44,60.963034793626726
45,0.0
46,45.72102914107496
47,60.96137218809994
48,0.0
2,1, 7, 1, 0, 6, 0.00,15.00,Saturday
7,12.000000000000002
8,101500.0
9,4.1
10,292.5
11,12.318574899575362
12,12.30915030504563
13,-0.6887938021330617
14,-0.6882389978579083
15,-0.22298362871341687
16,-0.22298362871341687
17,-1.1351893825410306
18,-1.1351893825410306
19,-0.22298362871341687
20,-0.22298362871341687
21,-1.1351893825410313
22,-1.1351893825410313
23,0.0
24,0.05381340658654323
25,0.053813406582828634
26,0.0
27,0.0
28,0.05381391236104529
29,0.05381391235749834
30,0.0
31,1.0
32,1.0
33,1.0
34,1.0
35,0.0
36,0.0
37,21.397846487450565
38,0.0
39,0.0
40,0.0
41,20.765016174714326
42,0.0
43,48.485805253658064
44,64.64774033821075
45,0.0
46,48.48466020842701
47,64.646213611236
48,0.0
2,1, 7, 1, 0, 6,15.00,30.00,Saturday
7,12.2
8,101500.0
9,4.1
10,295.0
11,12.444212974844701
12,12.435996937217839
13,-0.6329958975052516
14,-0.6325084655642835
15,-0.12153424154160605
16,-0.12153424154160605
17,-1.134319587721656
18,-1.134319587721656
19,-0.12153424154160605
20,-0.12153424154160605
21,-1.134319587721657
22,-1.134319587721657
23,0.0
24,0.05672876960029373
25,0.05672876873191424
26,0.0
27,0.0
28,0.0567292383127988
29,0.056729237509560125
30,0.0
31,1.0
32,1.0
33,1.0
34,1.0
35,0.0
36,0.0
37,17.27984551275608
38,0.0
39,0.0
40,0.0
41,16.6986390176646
42,0.0
43,51.099177994005245
44,68.13223732534033
45,0.0
46,51.09813014891082
47,68.13084019854776
48,0.0
2,1, 7, 1, 0, 6,30.00,45.00,Saturday
7,12.399999999999999
8,101500.0
9,4.1
10,297.5
11,12.700495940697905
12,12.688596197390325
13,-0.4037855087591209
14,-0.5886394387057778
15,-0.020240202446821662
16,-0.020240202446821662
17,-1.13345133702201
18,-1.13345133702201
19,-0.020240202446821662
20,-0.020240202446821662
21,-1.1334513370220105
22,-1.1334513370220105
23,0.000002085420967910794
24,0.03992503764967756
25,0.03992304539324241
26,0.0
27,0.0
28,0.039826821830214396
29,0.03982683054616022
30,0.0
31,1.0
32,1.0
33,1.0
34,1.0
35,0.0
36,0.0
37,11.68368112943202
38,0.0
39,0.0
40,0.0
41,11.18840988890057
42,0.0
43,35.97133991092153
44,47.96178654789537
45,0.0
46,35.881604901980566
47,47.842139869307424
48,0.0
2,1, 7, 1, 0, 6,45.00,60.00,Saturday
7,12.6
8,101500.0
9,4.1
10,300.0
11,12.742401844602975
12,12.735644987056332
13,-0.5236710368559416
14,-0.5233170590216712
15,0.08089890328961169
16,0.08089890328961169
17,-1.1325846460545632
18,-1.1325846460545632
19,0.08089890328961169
20,0.08089890328961169
21,-1.1325846460545639
22,-1.1325846460545639
23,0.0
24,0.06215091698196773
25,0.0621509201758316
26,0.0
27,0.0
28,0.06215129108725967
29,0.062151294167366006
30,0.0
31,1.0
32,1.0
33,1.0
34,1.0
35,0.0
36,0.0
37,11.023790618599927
38,0.0
39,0.0
40,0.0
41,10.500783474671822
42,0.0
43,55.963284930422795
44,74.61771324056373
45,0.0
46,55.96229979799014
47,74.61639973065353
48,0.0
2,1, 7, 1, 0, 7, 0.00,15.00,Saturday
7,12.774999999999999
8,101500.0
9,4.1
10,300.0
11,12.85998584832052
12,12.855016275092558
13,-0.5235694010504204
14,-0.5232210672125347
15,0.08084853971133447
16,0.08084853971133447
17,-1.131879555958682
18,-1.131879555958682
19,0.08084853971133447
20,0.08084853971133447
21,-1.1318795559586827
22,-1.1318795559586827
23,0.0
24,0.062150680292139625
25,0.06215068356021004
26,0.0
27,0.0
28,0.06215104868190971
29,0.06215105183546936
30,0.0
31,1.0
32,1.0
33,1.0
34,1.0
35,0.0
36,0.0
37,6.5749899452378076
38,0.0
39,0.0
40,0.0
41,6.19055210966751
42,0.0
43,55.95173817080071
44,74.60231756106761
45,0.0
46,55.951097385215974
47,74.60146318028796
48,0.0
2,1, 7, 1, 0, 7,15.00,30.00,Saturday
7,12.95
8,101500.0
9,4.1
10,300.0
11,13.008729428528754
12,13.004676507492809
13,-0.5204670286217405
14,-0.5202123292378255
15,0.08079834410090397
16,0.08079834410090397
17,-1.131176817412655
18,-1.131176817412655
19,0.08079834410090397
20,0.08079834410090397
21,-1.1311768174126555
22,-1.1311768174126555
23,0.0
24,0.06215361908750434
25,0.062153621540900046
26,0.0
27,0.0
28,0.06215388844348143
29,0.06215389083255422
30,0.0
31,1.0
32,1.0
33,1.0
34,1.0
35,0.0
36,0.0
37,4.541085292209864
38,0.0
39,0.0
40,0.0
41,4.227723072498736
42,0.0
43,55.94927013974643
44,74.59902685299524
45,0.0
46,55.948720174892784
47,74.59829356652371
48,0.0
2,1, 7, 1, 0, 7,30.00,45.00,Saturday
7,13.125000000000002
8,101500.0
9,4.1
10,300.0
11,13.158637575483667
12,13.156154501792129
13,-0.5187685588153695
14,-0.5185607349107566
15,0.08074831844008691
16,0.08074831844008691
17,-1.1304764581612161
18,-1.1304764581612161
19,0.08074831844008691
20,0.08074831844008691
21,-1.1304764581612168
22,-1.1304764581612168
23,0.0
24,0.062155075822309946
25,0.062155077945967745
26,0.0
27,0.0
28,0.062155295671238245
29,0.0621552977487909
30,0.0
31,1.0
32,1.0
33,1.0
34,1.0
35,0.0
36,0.0
37,2.599403465213815
38,0.0
39,0.0
40,0.0
41,2.407528045547113
42,0.0
43,55.94567144831969
44,74.5942285977596
45,0.0
46,55.94538415803172
47,74.5938455440423
48,0.0
2,1, 7, 1, 0, 7,45.00,60.00,Saturday
7,13.3
8,101500.0
9,4.1
10,300.0
11,13.317717050631959
12,13.315814825608754
13,-0.5171872364179951
14,-0.5170599880737862
15,0.08069846473557439
16,0.08069846473557439
17,-1.1297785062980412
18,-1.1297785062980412
19,0.08069846473557439
20,0.08069846473557439
21,-1.1297785062980419
22,-1.1297785062980419
23,0.0
24,0.06215641108677494
25,0.06215641294433463
26,0.0
27,0.0
28,0.062156545742386354
29,0.06215654757484445
30,0.0
31,1.0
32,1.0
33,1.0
34,1.0
35,0.0
36,0.0
37,1.3683108891607236
38,0.0
39,0.0
40,0.0
41,1.2214022198262262
42,0.0
43,55.943756343919176
44,74.59167512522556
45,0.0
46,55.94350605836696
47,74.59134141115594
48,0.0
2,1, 7, 1, 0, 8, 0.00,15.00,Saturday
7,13.725000000000001
8,101500.0
9,4.324999999999999
10,300.0
11,13.67801555202605
12,13.676658037805687
13,-0.5699711975795619
14,-0.569887593823228
15,0.08966372731651817
16,0.08966372731651817
17,-1.2552921824312542
18,-1.2552921824312542
19,0.08966372731651817
20,0.08966372731651817
21,-1.2552921824312546
22,-1.2552921824312546
23,0.0
24,0.06557361004705918
25,0.06557361164640535
26,0.0
27,0.0
28,0.06557370361906394
29,0.06557370520645162
30,0.0
31,1.0
32,1.0
33,1.0
34,1.0
35,3.822988483941492
36,0.0
37,0.0
38,0.0
39,3.9334381438461494
40,0.0
41,0.0
42,0.0
43,59.02907848423861
44,78.70543797898482
45,0.0
46,59.028883342324
47,78.70517778976534
48,0.0
2,1, 7, 1, 0, 8,15.00,30.00,Saturday
7,14.15
8,101500.0
9,4.55
10,300.0
11,14.026133710129841
12,14.027791283444767
13,-0.6371003452449715
14,-0.6371748743885066
15,0.09908748834578522
16,0.09908748834578522
17,-1.3872248368409925
18,-1.3872248368409925
19,0.09908748834578522
20,0.09908748834578522
21,-1.3872248368409932
22,-1.3872248368409932
23,0.0
24,0.0689780739457954
25,0.06897807636177083
26,0.0
27,0.0
28,0.06897798569905106
29,0.06897798813127339
30,0.0
31,1.0
32,1.0
33,1.0
34,1.0
35,10.584869890584821
36,0.0
37,0.0
38,0.0
39,10.443209145763126
40,0.0
41,0.0
42,0.0
43,62.077180748356895
44,82.76957433114252
45,0.0
46,62.07745961167997
47,82.76994614890663
48,0.0
2,1, 7, 1, 0, 8,30.00,45.00,Saturday
7,14.575
8,101500.0
9,4.775
10,300.0
11,14.385706615361547
12,14.390881265931434
13,-0.6979554166614057
14,-0.6982086498234853
15,0.10896797304684658
16,0.10896797304684658
17,-1.5255516226558516
18,-1.5255516226558516
19,0.10896797304684658
20,0.10896797304684658
21,-1.525551622655852
22,-1.525551622655852
23,0.0
24,0.072393317006994
25,0.07239331900410705
26,0.0
27,0.0
28,0.07239300119858673
29,0.07239300323958242
30,0.0
31,1.0
32,1.0
33,1.0
34,1.0
35,16.951735464135353
36,0.0
37,0.0
38,0.0
39,16.488257826474985
40,0.0
41,0.0
42,0.0
43,65.13597343983805
44,86.84796458645074
45,0.0
46,65.13686147885636
47,86.84914863847516
48,0.0
2,1, 7, 1, 0, 8,45.00,60.00,Saturday
7,15.0
8,101500.0
9,5.0
10,300.0
11,14.750466716079142
12,14.759917171059534
13,-0.7622152252517301
14,-0.7626791023519339
15,0.11930345943739676
16,0.11930345943739676
17,-1.670248432123554
18,-1.670248432123554
19,0.11930345943739676
20,0.11930345943739676
21,-1.6702484321235544
22,-1.6702484321235544
23,0.0
24,0.07580841005504835
25,0.07580841180564307
26,0.0
27,0.0
28,0.07580780194052672
29,0.07580780375954121
30,0.0
31,1.0
32,1.0
33,1.0
34,1.0
35,23.366037122765213
36,0.0
37,0.0
38,0.0
39,22.480923749542995
40,0.0
41,0.0
42,0.0
43,68.19448949422178
44,90.92598599229572
45,0.0
46,68.19618091441993
47,90.92824121922656
48,0.0
2,1, 7, 1, 0, 9, 0.00,15.00,Saturday
7,15.4
8,101500.0
9,5.2
10,302.5
11,15.106924462619173
12,15.12105607021607
13,-0.744414591132045
14,-0.7451085115193598
15,0.2469779865651958
16,0.2469779865651958
17,-1.7664295126075955
18,-1.7664295126075955
19,0.2469779865651958
20,0.2469779865651958
21,-1.7664295126075964
22,-1.7664295126075964
23,0.0
24,0.08046950071676495
25,0.08046950071323676
26,0.0
27,0.0
28,0.0804685301270475
29,0.08046853012410285
30,0.0
31,1.0
32,1.0
33,1.0
34,1.0
35,29.09032782215599
36,0.0
37,0.0
38,0.0
39,27.68730475491514
40,0.0
41,0.0
42,0.0
43,72.37663685914077
44,96.50218247885435
45,0.0
46,72.37931201432477
47,96.50574935243301
48,0.0
2,1, 7, 1, 0, 9,15.00,30.00,Saturday
7,15.8
8,101500.0
9,5.4
10,305.0
11,15.473177540118204
12,15.492204278079196
13,-0.7172882293459761
14,-0.7182172196285034
15,0.39317519670776724
16,0.39317519670776724
17,-1.8618001961750155
18,-1.8618001961750155
19,0.39317519670776724
20,0.39317519670776724
21,-1.861800196175016
22,-1.861800196175016
23,0.0
24,0.08521608289527122
25,0.08522766420663666
26,0.0
27,0.0
28,0.0852146062450562
29,0.08522636586770191
30,0.0
31,1.0
32,1.0
33,1.0
34,1.0
35,34.30599231969582
36,0.0
37,0.0
38,0.0
39,32.30822516563249
40,0.0
41,0.0
42,0.0
43,76.63701209889021
44,102.18268279852029
45,0.0
46,76.64073607350461
47,102.18764809800615
48,0.0
2,1, 7, 1, 0, 9,30.00,45.00,Saturday
7,16.200000000000003
8,101500.0
9,5.6
10,307.5
11,15.843910099938899
12,15.86799313116665
13,-0.6804005691000257
14,-0.6815728979496324
15,0.5588668597436466
16,0.5588668597436466
17,-1.9560340091027624
18,-1.9560340091027624
19,0.5588668597436466
20,0.5588668597436466
21,-1.956034009102763
22,-1.956034009102763
23,0.0
24,0.09006289959722083
25,0.0900651217785471
26,0.0
27,0.0
28,0.0900610195908099
29,0.09006328662550711
30,0.0
31,1.0
32,1.0
33,1.0
34,1.0
35,39.44947899750727
36,0.0
37,0.0
38,0.0
39,36.78066508674847
40,0.0
41,0.0
42,0.0
43,80.9877941696399
44,107.98372555951987
45,0.0
46,80.9928524514988
47,107.99046993533176
48,0.0
2,1, 7, 1, 0, 9,45.00,60.00,Saturday
7,16.6
8,101500.0
9,5.8
10,310.0
11,16.220456540518704
12,16.249614336294563
13,-0.6327499065539692
14,-0.634161488448477
15,0.7450205073856322
16,0.7450205073856322
17,-2.0488063953104882
18,-2.0488063953104882
19,0.7450205073856322
20,0.7450205073856322
21,-2.0488063953104887
22,-2.0488063953104887
23,0.0
24,0.09499399506228795
25,0.09499438590691267
26,0.0
27,0.0
28,0.0949916166626123
29,0.09499201815368673
30,0.0
31,1.0
32,1.0
33,1.0
34,1.0
35,44.288686342650124
36,0.0
37,0.0
38,0.0
39,40.88525411111925
40,0.0
41,0.0
42,0.0
43,85.4151995584967
44,113.88693274466226
45,0.0
46,85.42166740139803
47,113.89555653519736
48,0.0
2,1, 7, 1, 0,10, 0.00,15.00,Saturday
7,17.025000000000002
8,101500.0
9,6.0249999999999995
10,310.0
11,16.618229255184495
12,16.65279271128025
13,-0.68213897471388
14,-0.6838021737669143
15,0.8028077420260111
16,0.8028077420260111
17,-2.20772129057153
18,-2.20772129057153
19,0.8028077420260111
20,0.8028077420260111
21,-2.207721290571531
22,-2.207721290571531
23,0.0
24,0.09868136183936664
25,0.09868176791087235
26,0.0
27,0.0
28,0.09867843577123644
29,0.09867885414534247
30,0.0
31,1.0
32,1.0
33,1.0
34,1.0
35,49.2357111733956
36,0.0
37,0.0
38,0.0
39,45.050794888580526
40,0.0
41,0.0
42,0.0
43,88.7223965099277
44,118.29652867990359
45,0.0
46,88.73034815298004
47,118.30713087064007
48,0.0
2,1, 7, 1, 0,10,15.00,30.00,Saturday
7,17.450000000000003
8,101500.0
9,6.25
10,310.0
11,17.020169020312352
12,17.060040046509627
13,-0.7335826067822657
14,-0.7354904760565988
15,0.8626778346899722
16,0.8626778346899722
17,-2.3723640453974237
18,-2.3723640453974237
19,0.8626778346899722
20,0.8626778346899722
21,-2.372364045397424
22,-2.372364045397424
23,0.0
24,0.10236850113194446
25,0.10236892411873696
26,0.0
27,0.0
28,0.10236500065280835
29,0.10236543754842312
30,0.0