Program Version,EnergyPlus, Version 22.2.0-c249759bad, YMD=2025.11.01 17:29
1,5,Environment Title[],Latitude[deg],Longitude[deg],Time Zone[],Elevation[m]
2,8,Day of Simulation[],Month[],Day of Month[],DST Indicator[1=yes 0=no],Hour[],StartMinute[],EndMinute[],DayType
3,5,Cumulative Day of Simulation[],Month[],Day of Month[],DST Indicator[1=yes 0=no],DayType  ! When Daily Report Variables Requested
4,2,Cumulative Days of Simulation[],Month[]  ! When Monthly Report Variables Requested
5,1,Cumulative Days of Simulation[] ! When Run Period Report Variables Requested
6,1,Calendar Year of Simulation[] ! When Annual Report Variables Requested
7,1,Environment,Site Outdoor Air Drybulb Temperature [C] !TimeStep
8,1,Environment,Site Wind Speed [m/s] !TimeStep
9,1,Environment,Site Wind Direction [deg] !TimeStep
10,1,BLOCK `ROOM1` STOREY 0,Zone Mean Air Temperature [C] !TimeStep
11,1,BLOCK `ROOM2` STOREY 0,Zone Mean Air Temperature [C] !TimeStep
12,1,BLOCK `ROOM1` STOREY 0,AFN Node Total Pressure [Pa] !TimeStep
13,1,AFN_PRESSURE_COEFFICIENT_VALUES_NORTH_ROOM1,AFN Node Total Pressure [Pa] !TimeStep
14,1,AFN_PRESSURE_COEFFICIENT_VALUES_NORTH_ROOM1,AFN Node Wind Pressure [Pa] !TimeStep
15,1,AFN_PRESSURE_COEFFICIENT_VALUES_WEST_ROOM1,AFN Node Total Pressure [Pa] !TimeStep
16,1,AFN_PRESSURE_COEFFICIENT_VALUES_WEST_ROOM1,AFN Node Wind Pressure [Pa] !TimeStep
17,1,DOOR__BLOCK `ROOM1` STOREY 0 WALL 0001,AFN Linkage Node 1 to Node 2 Volume Flow Rate [m3/s] !TimeStep
18,1,DOOR__BLOCK `ROOM1` STOREY 0 WALL 0001,AFN Linkage Node 2 to Node 1 Volume Flow Rate [m3/s] !TimeStep
19,1,DOOR__BLOCK `ROOM1` STOREY 0 WALL 0002,AFN Linkage Node 1 to Node 2 Volume Flow Rate [m3/s] !TimeStep
20,1,DOOR__BLOCK `ROOM1` STOREY 0 WALL 0002,AFN Linkage Node 2 to Node 1 Volume Flow Rate [m3/s] !TimeStep
21,1,BLOCK `ROOM1` STOREY 0,AFN Zone Ventilation Sensible Heat Gain Rate [W] !TimeStep
22,1,BLOCK `ROOM1` STOREY 0,AFN Zone Mixing Sensible Heat Gain Rate [W] !TimeStep
23,1,BLOCK `ROOM1` STOREY 0,AFN Zone Ventilation Sensible Heat Loss Rate [W] !TimeStep
24,1,BLOCK `ROOM1` STOREY 0,AFN Zone Mixing Sensible Heat Loss Rate [W] !TimeStep
25,1,BLOCK `ROOM2` STOREY 0,AFN Zone Ventilation Sensible Heat Gain Rate [W] !TimeStep
26,1,BLOCK `ROOM2` STOREY 0,AFN Zone Mixing Sensible Heat Gain Rate [W] !TimeStep
27,1,BLOCK `ROOM2` STOREY 0,AFN Zone Ventilation Sensible Heat Loss Rate [W] !TimeStep
28,1,BLOCK `ROOM2` STOREY 0,AFN Zone Mixing Sensible Heat Loss Rate [W] !TimeStep
29,1,BLOCK `ROOM1` STOREY 0,AFN Zone Ventilation Volume [m3] !TimeStep
30,1,BLOCK `ROOM1` STOREY 0,AFN Zone Ventilation Air Change Rate [ach] !TimeStep
31,1,BLOCK `ROOM1` STOREY 0,AFN Zone Mixing Volume [m3] !TimeStep
32,1,BLOCK `ROOM2` STOREY 0,AFN Zone Ventilation Volume [m3] !TimeStep
33,1,BLOCK `ROOM2` STOREY 0,AFN Zone Ventilation Air Change Rate [ach] !TimeStep
34,1,BLOCK `ROOM2` STOREY 0,AFN Zone Mixing Volume [m3] !TimeStep
End of Data Dictionary
1,JULY_1,  37.62,-122.40,  -8.00,   2.00
2,1, 7, 1, 0, 1, 0.00,15.00,Saturday
7,13.150000000000002
8,6.45
9,285.0
10,13.420430037333752
11,17.786565176651948
12,0.7027643477108518
13,-1.2975015304897581
14,-1.2975015304897581
15,2.6948108710171903
16,2.6948108710171903
17,0.11293234922988976
18,0.0
19,0.0
20,0.11293239492510201
21,0.0
22,0.0
23,37.9515476788661
24,0.0
25,0.0
26,0.0
27,0.0
28,0.0
29,101.73452515004202
30,135.64603353338936
31,0.0
32,0.0
33,0.0
34,0.0
2,1, 7, 1, 0, 1,15.00,30.00,Saturday
7,13.5
8,5.9
9,280.0
10,13.71573013116972
11,17.66794071343902
12,0.42527603930595387
13,-1.5016886976577148
14,-1.5016886976577148
15,2.335960196356445
16,2.335960196356445
17,0.11076014604017097
18,0.0
19,0.0
20,0.1107601467677564
21,0.0
22,0.0
23,29.672378765853058
24,0.0
25,0.0
26,0.0
27,0.0
28,0.0
29,99.75840437550538
30,133.01120583400717
31,0.0
32,0.0
33,0.0
34,0.0
2,1, 7, 1, 0, 1,30.00,45.00,Saturday
7,13.849999999999998
8,5.35
9,275.0
10,14.010377273438877
11,17.553050116245597
12,0.21639981084115412
13,-1.5761396178668703
14,-1.5761396178668703
15,1.9873064747017055
16,1.9873064747017055
17,0.1067631052275081
18,0.0
19,0.0
20,0.10676310523411703
21,0.0
22,0.0
23,21.248341454066605
24,0.0
25,0.0
26,0.0
27,0.0
28,0.0
29,96.13979659129598
30,128.1863954550613
31,0.0
32,0.0
33,0.0
34,0.0
2,1, 7, 1, 0, 1,45.00,60.00,Saturday
7,14.2
8,4.8
9,270.0
10,14.311916871357898
11,17.467595016232845
12,0.060191488229108754
13,-1.5429549534374045
14,-1.5429549534374045
15,1.6531660215400763
16,1.6531660215400763
17,0.10112680074298461
18,0.0
19,0.0
20,0.1011282562821115
21,0.0
22,0.0
23,14.03511386063645
24,0.0
25,0.0
26,0.0
27,0.0
28,0.0
29,91.09050053614547
30,121.45400071486063
31,0.0
32,0.0
33,0.0
34,0.0
2,1, 7, 1, 0, 2, 0.00,15.00,Saturday
7,13.95
8,4.75
9,272.5
10,14.113877326137915
11,17.355141675568603
12,0.08627233455770465
13,-1.3774768121489434
14,-1.3774768121489434
15,1.5935516062115225
16,1.5935516062115225
17,0.09740316005917135
18,0.0
19,0.0
20,0.09740782232065673
21,0.0
22,0.0
23,19.812799650657546
24,0.0
25,0.0
26,0.0
27,0.0
28,0.0
29,87.71612098114754
30,116.95482797486339
31,0.0
32,0.0
33,0.0
34,0.0
2,1, 7, 1, 0, 2,15.00,30.00,Saturday
7,13.7
8,4.699999999999999
9,275.0
10,13.89490862661831
11,17.23791701246456
12,0.13592283197543517
13,-1.2176551189753566
14,-1.2176551189753566
15,1.5353042804471884
16,1.5353042804471884
17,0.0937129335885927
18,0.0
19,0.0
20,0.09371293358675804
21,0.0
22,0.0
23,22.689887014814044
24,0.0
25,0.0
26,0.0
27,0.0
28,0.0
29,84.39820606836244
30,112.53094142448326
31,0.0
32,0.0
33,0.0
34,0.0
2,1, 7, 1, 0, 2,30.00,45.00,Saturday
7,13.45
8,4.6499999999999995
9,277.5
10,13.694973425344857
11,17.138381129515423
12,0.18314749384181833
13,-1.063418130500371
14,-1.063418130500371
15,1.4784105716712472
16,1.4784105716712472
17,0.08999963683678243
18,0.0
19,0.0
20,0.08999963682461627
21,0.0
22,0.0
23,27.411353923059604
24,0.0
25,0.0
26,0.0
27,0.0
28,0.0
29,81.06816588089742
30,108.09088784119656
31,0.0
32,0.0
33,0.0
34,0.0
2,1, 7, 1, 0, 2,45.00,60.00,Saturday
7,13.2
8,4.6
9,280.0
10,13.492932571231952
11,17.04835314573994
12,0.2270797091034345
13,-0.914693744298069
14,-0.914693744298069
15,1.4228569355747738
16,1.4228569355747738
17,0.08625955212121408
18,0.0
19,0.0
20,0.08625955211803432
21,0.0
22,0.0
23,31.442354294959493
24,0.0
25,0.0
26,0.0
27,0.0
28,0.0
29,77.7122857724486
30,103.61638102993146
31,0.0
32,0.0
33,0.0
34,0.0
2,1, 7, 1, 0, 3, 0.00,15.00,Saturday
7,12.924999999999999
8,4.5249999999999995
9,280.0
10,13.26398350409193
11,16.958479653637365
12,0.2151074251869608
13,-0.8858862936817159
14,-0.8858862936817159
15,1.3780453457271131
16,1.3780453457271131
17,0.08485779694274669
18,0.0
19,0.0
20,0.08485779691504644
21,0.0
22,0.0
23,35.81875149674821
24,0.0
25,0.0
26,0.0
27,0.0
28,0.0
29,76.46178505024395
30,101.94904673365859
31,0.0
32,0.0
33,0.0
34,0.0
2,1, 7, 1, 0, 3,15.00,30.00,Saturday
7,12.649999999999999
8,4.449999999999999
9,280.0
10,13.033448195425542
11,16.867759062687373
12,0.20482505276642674
13,-0.8575139685220894
14,-0.8575139685220894
15,1.333910617701028
16,1.333910617701028
17,0.08345818788231027
18,0.0
19,0.0
20,0.0834581878438133
21,0.0
22,0.0
23,39.87642323612744
24,0.0
25,0.0
26,0.0
27,0.0
28,0.0
29,75.2124338134143
30,100.28324508455239
31,0.0
32,0.0
33,0.0
34,0.0
2,1, 7, 1, 0, 3,30.00,45.00,Saturday
7,12.375
8,4.375
9,280.0
10,12.803183926432647
11,16.777570316968045
12,0.19475265749081075
13,-0.8295780710569012
14,-0.8295780710569012
15,1.2904547771996238
16,1.2904547771996238
17,0.08205848827921818
18,0.0
19,0.0
20,0.08205848823328044
21,0.0
22,0.0
23,43.81222712084145
24,0.0
25,0.0
26,0.0
27,0.0
28,0.0
29,73.96269038178664
30,98.61692050904885
31,0.0
32,0.0
33,0.0
34,0.0
2,1, 7, 1, 0, 3,45.00,60.00,Saturday
7,12.1
8,4.3
9,280.0
10,12.571993673722975
11,16.6879223488391
12,0.18476486817227145
13,-0.8020799028099065
14,-0.8020799028099065
15,1.24767984881541
16,1.24767984881541
17,0.08065851407758888
18,0.0
19,0.0
20,0.08065851402679257
21,0.0
22,0.0
23,47.503898491693036
24,0.0
25,0.0
26,0.0
27,0.0
28,0.0
29,72.7120883075172
30,96.94945107668961
31,0.0
32,0.0
33,0.0
34,0.0
2,1, 7, 1, 0, 4, 0.00,15.00,Saturday
7,11.85
8,4.25
9,282.5
10,12.37015210025113
11,16.59807238583083
12,0.2225034220468283
13,-0.6753974618729282
14,-0.6753974618729282
15,1.1982858194519692
16,1.1982858194519692
17,0.07707619650320106
18,0.0
19,0.0
20,0.07707619666399418
21,0.0
22,0.0
23,50.06857377914063
24,0.0
25,0.0
26,0.0
27,0.0
28,0.0
29,69.49452945179408
30,92.65937260239211
31,0.0
32,0.0
33,0.0
34,0.0
2,1, 7, 1, 0, 4,15.00,30.00,Saturday
7,11.6
8,4.199999999999999
9,285.0
10,12.171966944623069
11,16.507484994277604
12,0.2566306792179651
13,-0.5537747761147058
14,-0.5537747761147058
15,1.150147611930543
16,1.150147611930543
17,0.07346117648495472
18,0.0
19,0.0
20,0.07346118039555997
21,0.0
22,0.0
23,52.51889436818251
24,0.0
25,0.0
26,0.0
27,0.0
28,0.0
29,66.24723542219095
30,88.32964722958793
31,0.0
32,0.0
33,0.0
34,0.0
2,1, 7, 1, 0, 4,30.00,45.00,Saturday
7,11.35
8,4.1499999999999995
9,287.5
10,11.975569474200709
11,16.415722141209713
12,0.28865518729750694
13,-0.4371372621322759
14,-0.4371372621322759
15,1.1032511853814584
16,1.1032511853814584
17,0.06980833340263864
18,0.0
19,0.0
20,0.06980837136269859
21,0.0
22,0.0
23,54.631405485403626
24,0.0
25,0.0
26,0.0
27,0.0
28,0.0
29,62.96508091247329
30,83.95344121663105
31,0.0
32,0.0
33,0.0
34,0.0
2,1, 7, 1, 0, 4,45.00,60.00,Saturday
7,11.1
8,4.1
9,290.0
10,11.783034831747335
11,16.322938631235804
12,0.3187337117731492
13,-0.32540997761311785
14,-0.32540997761311785
15,1.0575824272426328
16,1.0575824272426328
17,0.06610889124041201
18,0.0
19,0.0
20,0.06610918710524764
21,0.0
22,0.0
23,56.537550556553036
24,0.0
25,0.0
26,0.0
27,0.0
28,0.0
29,59.64066733731411
30,79.52088978308548
31,0.0
32,0.0
33,0.0
34,0.0
2,1, 7, 1, 0, 5, 0.00,15.00,Saturday
7,11.274999999999999
8,4.1
9,290.0
10,11.87320478915236
11,16.229255971342283
12,0.33975911242727014
13,-0.3252037463463598
14,-0.3252037463463598
15,1.056912175625669
16,1.056912175625669
17,0.06613275016486753
18,0.0
19,0.0
20,0.06613335631667816
21,0.0
22,0.0
23,49.503587908409024
24,0.0
25,0.0
26,0.0
27,0.0
28,0.0
29,59.644747360517606
30,79.52632981402347
31,0.0
32,0.0
33,0.0
34,0.0
2,1, 7, 1, 0, 5,15.00,30.00,Saturday
7,11.45
8,4.1
9,290.0
10,11.984641602258424
11,16.1346137226149
12,0.344106212343821
13,-0.32499813040345477
14,-0.32499813040345477
15,1.0562439238112278
16,1.0562439238112278
17,0.06613785441890761
18,0.0
19,0.0
20,0.06613855602108504
21,0.0
22,0.0
23,44.21989269970931
24,0.0
25,0.0
26,0.0
27,0.0
28,0.0
29,59.636007618634814
30,79.51467682484642
31,0.0
32,0.0
33,0.0
34,0.0
2,1, 7, 1, 0, 5,30.00,45.00,Saturday
7,11.625000000000002
8,4.1
9,290.0
10,12.090144247981181
11,16.039995545036746
12,0.3470627511724921
13,-0.32479313693587475
14,-0.32479313693587475
15,1.0555776950415927
16,1.0555776950415927
17,0.06614140128845461
18,0.0
19,0.0
20,0.06614217695591461
21,0.0
22,0.0
23,38.45036394514387
24,0.0
25,0.0
26,0.0
27,0.0
28,0.0
29,59.62468158684423
30,79.49957544912564
31,0.0
32,0.0
33,0.0
34,0.0
2,1, 7, 1, 0, 5,45.00,60.00,Saturday
7,11.8
8,4.1
9,290.0
10,12.203410031345339
11,15.947453494981499
12,0.35042253504575055
13,-0.3245887731886718
14,-0.3245887731886718
15,1.054913512863183
16,1.054913512863183
17,0.06614539608404445
18,0.0
19,0.0
20,0.0661462635726462
21,0.0
22,0.0
23,33.32886342497458
24,0.0
25,0.0
26,0.0
27,0.0
28,0.0
29,59.61541470140036
30,79.48721960186715
31,0.0
32,0.0
33,0.0
34,0.0
2,1, 7, 1, 0, 6, 0.00,15.00,Saturday
7,12.000000000000002
8,4.1
9,292.5
10,12.353569747720005
11,15.859211327619581
12,0.3958298446074834
13,-0.22298362871341687
14,-0.22298362871341687
15,1.033833187671296
16,1.033833187671296
17,0.06316198727598067
18,0.0
19,0.0
20,0.06316977005508694
21,0.0
22,0.0
23,27.877409968340352
24,0.0
25,0.0
26,0.0
27,0.0
28,0.0
29,56.92284560756233
30,75.89712747674977
31,0.0
32,0.0
33,0.0
34,0.0
2,1, 7, 1, 0, 6,15.00,30.00,Saturday
7,12.2
8,4.1
9,295.0
10,12.508812703268948
11,15.775205605143137
12,0.4387354888543022
13,-0.12153424154160605
14,-0.12153424154160605
15,1.0127853461800507
16,1.0127853461800507
17,0.060034399487377266
18,0.0
19,0.0
20,0.06003439950923226
21,0.0
22,0.0
23,23.12400663862717
24,0.0
25,0.0
26,0.0
27,0.0
28,0.0
29,54.08899670411992
30,72.1186622721599
31,0.0
32,0.0
33,0.0
34,0.0
2,1, 7, 1, 0, 6,30.00,45.00,Saturday
7,12.399999999999999
8,4.1
9,297.5
10,12.665473069145992
11,15.695205268146635
12,0.48114018060275243
13,-0.020240202446821662
14,-0.020240202446821662
15,0.9917699198942592
16,0.9917699198942592
17,0.05672903832102444
18,0.0
19,0.0
20,0.05672969824091501
21,0.0
22,0.0
23,18.77148480736676
24,0.0
25,0.0
26,0.0
27,0.0
28,0.0
29,51.10378607271644
30,68.13838143028859
31,0.0
32,0.0
33,0.0
34,0.0
2,1, 7, 1, 0, 6,45.00,60.00,Saturday
7,12.6
8,4.1
9,300.0
10,12.824939889490299
11,15.620623310653297
12,0.5234896386298415
13,0.08089890328961169
14,0.08089890328961169
15,0.9707868394753404
16,0.9707868394753404
17,0.053220535776518814
18,0.0
19,0.0
20,0.0532172351763782
21,0.0
22,0.0
23,14.910306990864797
24,0.0
25,0.0
26,0.0
27,0.0
28,0.0
29,47.93283466839106
30,63.910446224521415
31,0.0
32,0.0
33,0.0
34,0.0
2,1, 7, 1, 0, 7, 0.00,15.00,Saturday
7,12.774999999999999
8,4.1
9,300.0
10,12.957450244378505
11,15.552139879973641
12,0.5231740867233841
13,0.08084853971133447
14,0.08084853971133447
15,0.9701824765360136
16,0.9701824765360136
17,0.05322055065435917
18,0.0
19,0.0
20,0.053217239682380166
21,0.0
22,0.0
23,12.08646743597432
24,0.0
25,0.0
26,0.0
27,0.0
28,0.0
29,47.92565884080315
30,63.9008784544042
31,0.0
32,0.0
33,0.0
34,0.0
2,1, 7, 1, 0, 7,15.00,30.00,Saturday
7,12.95
8,4.1
9,300.0
10,12.972182807760378
11,15.490409943346023
12,0.5249024140024731
13,0.08079834410090397
14,0.08079834410090397
15,0.9695801292108478
16,0.9695801292108478
17,0.44128324656099854
18,0.0
19,0.0
20,0.44128323129883756
21,0.0
22,0.0
23,12.177871930360023
24,0.0
25,0.0
26,0.0
27,0.0
28,0.0
29,397.18232514688657
30,529.576433529182
31,0.0
32,0.0
33,0.0
34,0.0
2,1, 7, 1, 0, 7,30.00,45.00,Saturday
7,13.125000000000002
8,4.1
9,300.0
10,13.21794631761514
11,15.43952986396794
12,0.532853852856021
13,0.08074831844008691
14,0.08074831844008691
15,0.9689798212810429
16,0.9689798212810429
17,0.053228229639744946
18,0.0
19,0.0
20,0.05322822963980287
21,0.0
22,0.0
23,6.151012617494117
24,0.0
25,0.0
26,0.0
27,0.0
28,0.0
29,47.920556810835585
30,63.89407574778078
31,0.0
32,0.0
33,0.0
34,0.0
2,1, 7, 1, 0, 7,45.00,60.00,Saturday
7,13.3
8,4.1
9,300.0
10,13.38173496003917
11,15.399333258263164
12,0.5288628747132814
13,0.08069846473557439
14,0.08069846473557439
15,0.9683815768268927
16,0.9683815768268927
17,0.05322493139325618
18,0.0
19,0.0
20,0.05322493139325335
21,0.0
22,0.0
23,5.405431789740977
24,0.0
25,0.0
26,0.0
27,0.0
28,0.0
29,47.91570169139461
30,63.88760225519281
31,0.0
32,0.0
33,0.0
34,0.0
2,1, 7, 1, 0, 8, 0.00,15.00,Saturday
7,13.725000000000001
8,4.324999999999999
9,300.0
10,13.726512146954201
11,15.378217992377753
12,0.5929783308457948
13,0.08966372731651817
14,0.08966372731651817
15,1.075964727798218
16,1.075964727798218
17,0.05615401355178287
18,0.0
19,0.0
20,0.05614870092359137
21,1.5424718446618455
22,0.0
23,1.6472405214658874
24,0.0
25,0.0
26,0.0
27,0.0
28,0.0
29,50.55336429149446
30,67.40448572199261
31,0.0
32,0.0
33,0.0
34,0.0
2,1, 7, 1, 0, 8,15.00,30.00,Saturday
7,14.15
8,4.55
9,300.0
10,14.083168707085902
11,15.351449140550873
12,0.6482806853321472
13,0.09908748834578522
14,0.09908748834578522
15,1.1890498601494226
16,1.1890498601494226
17,0.05906664502779973
18,0.0
19,0.0
20,0.05906664502782823
21,4.890368479368753
22,0.0
23,0.0
24,0.0
25,0.0
26,0.0
27,0.0
28,0.0
29,53.16789588610881
30,70.89052784814507
31,0.0
32,0.0
33,0.0
34,0.0
2,1, 7, 1, 0, 8,30.00,45.00,Saturday
7,14.575
8,4.775
9,300.0
10,14.443340737964753
11,15.347089055968425
12,0.7158329769956825
13,0.10896797304684658
14,0.10896797304684658
15,1.3076156765621587
16,1.3076156765621587
17,0.06199108816920014
18,0.0
19,0.0
20,0.06199108816950081
21,10.096252433188182
22,0.0
23,0.0
24,0.0
25,0.0
26,0.0
27,0.0
28,0.0
29,55.787735548813856
30,74.38364739841847
31,0.0
32,0.0
33,0.0
34,0.0
2,1, 7, 1, 0, 8,45.00,60.00,Saturday
7,15.0
8,5.0
9,300.0
10,14.800846956483085
11,15.354297521438937
12,0.7863265568492384
13,0.11930345943739676
14,0.11930345943739676
15,1.4316415132487612
16,1.4316415132487612
17,0.06491587445198312
18,0.0
19,0.0
20,0.06491587445293792
21,15.968964351183853
22,0.0
23,0.0
24,0.0
25,0.0
26,0.0
27,0.0
28,0.0
29,58.40617874226826
30,77.874904989691
31,0.0
32,0.0
33,0.0
34,0.0
2,1, 7, 1, 0, 9, 0.00,15.00,Saturday
7,15.4
8,5.2
9,302.5
10,15.125206890240495
11,15.374486091990963
12,0.8522752930412094
13,0.2469779865651958
14,0.2469779865651958
15,1.4281770527465671
16,1.4281770527465671
17,0.06163856113608884
18,0.0
19,0.0
20,0.06162977328552459
21,20.88979392228707
22,0.0
23,0.0
24,0.0
25,0.0
26,0.0
27,0.0
28,0.0
29,55.43514896454945
30,73.9135319527326
31,0.0
32,0.0
33,0.0
34,0.0
2,1, 7, 1, 0, 9,15.00,30.00,Saturday
7,15.8
8,5.4
9,305.0
10,15.444794894531498
11,15.406990936266979
12,0.92070581282914
13,0.39317519670776724
14,0.39317519670776724
15,1.4108051175984593
16,1.4108051175984593
17,0.05725153600198306
18,0.0
19,0.0
20,0.0572515360209761
21,25.049717722488225
22,0.0
23,0.0
24,0.0
25,0.0
26,0.0
27,0.0
28,0.0
29,51.482714135136725
30,68.64361884684897
31,0.0
32,0.0
33,0.0
34,0.0
2,1, 7, 1, 0, 9,30.00,45.00,Saturday
7,16.200000000000003
8,5.6
9,307.5
10,15.74598041634005
11,15.45055662789414
12,0.9923789604847565
13,0.5588668597436466
14,0.5588668597436466
15,1.3785382540343283
16,1.3785382540343283
17,0.051421907676380066
18,0.0
19,0.0
20,0.051421907694979785
21,28.718282878198067
22,0.0
23,0.0
24,0.0
25,0.0
26,0.0
27,0.0
28,0.0
29,46.224756376335556
30,61.63300850178074
31,0.0
32,0.0
33,0.0
34,0.0
2,1, 7, 1, 0, 9,45.00,60.00,Saturday
7,16.6
8,5.8
9,310.0
10,16.016110282039605
11,15.50381029705465
12,1.0793131630031068
13,0.7450205073856322
14,0.7450205073856322
15,1.330393763188629
16,1.330393763188629
17,0.043498196817183025
18,0.0
19,0.0
20,0.04349823384658149
21,31.198802812862585
22,0.0
23,0.0
24,0.0
25,0.0
26,0.0
27,0.0
28,0.0
29,39.069186079626824
30,52.0922481061691
31,0.0
32,0.0
33,0.0
34,0.0
2,1, 7, 1, 0,10, 0.00,15.00,Saturday
7,17.025000000000002
8,6.0249999999999995
9,310.0
10,16.376645709543055
11,15.566199238348439
12,1.1609178560675288
13,0.8028077420260111
14,0.8028077420260111
15,1.433585253617877
16,1.433585253617877
17,0.04518659087901766
18,0.0
19,0.0
20,0.04518663027878954
21,35.93539952533055
22,0.0
23,0.0
24,0.0
25,0.0
26,0.0
27,0.0
28,0.0
29,40.59248926844381
30,54.12331902459175
31,0.0
32,0.0
33,0.0
34,0.0
2,1, 7, 1, 0,10,15.00,30.00,Saturday
7,17.450000000000003
8,6.25
9,310.0
10,16.74256766092272
11,15.669610671744175
12,1.2378919207960444
13,0.8626778346899722
14,0.8626778346899722
15,1.5404961333749503
16,1.5404961333749503
17,0.04686915753758139
18,0.0
19,0.0
20,0.046869203178180247
21,40.609557325864145
22,0.0
23,0.0
24,0.0
25,0.0
26,0.0
27,0.0
28,0.0
29,42.09545617620179
30,56.12727490160239
31,0.0
32,0.0
33,0.0
34,0.0
2,1, 7, 1, 0,10,30.00,45.00,Saturday
7,17.875
8,6.4750000000000005
9,310.0
10,17.119219879845744
11,15.774959771362688
12,1.3265524313751282
13,0.9246246637519625
14,0.9246246637519625
15,1.6511154709856475
16,1.6511154709856475
17,0.048558508538449556
18,0.0
19,0.0
20,0.04855855560843229
21,44.8825537880722
22,0.0
23,0.0
24,0.0
25,0.0
26,0.0
27,0.0
28,0.0
29,43.60551233555444
30,58.14068311407258
31,0.0
32,0.0
33,0.0
34,0.0
2,1, 7, 1, 0,10,45.00,60.00,Saturday
7,18.3
8,6.7
9,310.0
10,17.499341234888867
11,15.899360416818375
12,1.4177765699797122
13,0.9886424493450902
14,0.9886424493450902
15,1.7654329452590898
16,1.7654329452590898
17,0.05024774035258048
18,0.0
19,0.0
20,0.050247789039259506
21,49.129398859388004
22,0.0
23,0.0
24,0.0
25,0.0
26,0.0
27,0.0
28,0.0
29,45.11549844915757
30,60.15399793221009
31,0.0
32,0.0
33,0.0
34,0.0
2,1, 7, 1, 0,11, 0.00,15.00,Saturday
7,18.25
8,6.825
9,307.5
10,17.649044237553436
11,16.03787284583007
12,1.4648173878620188
13,0.8244897450392136
14,0.8244897450392136
15,2.033741371096727
16,2.033741371096727
17,0.06268394132102764
18,0.0
19,0.0
20,0.06268394135037642
21,46.009968072524075
22,0.0
23,0.0
24,0.0
25,0.0
26,0.0
27,0.0
28,0.0
29,56.298771645773606
30,75.06502886103148
31,0.0
32,0.0
33,0.0
34,0.0
2,1, 7, 1, 0,11,15.00,30.00,Saturday
7,18.200000000000003
8,6.95
9,305.0
10,17.72990614884676
11,16.194620936477023
12,1.509595258004225
13,0.6460734399436513
14,0.6460734399436513
15,2.3182635197978083
16,2.3182635197978083
17,0.0736966978196909
18,0.0
19,0.0
20,0.07369669783559377
21,42.321547140403474
22,0.0
23,0.0
24,0.0
25,0.0
26,0.0
27,0.0
28,0.0
29,66.21945766106103
30,88.29261021474804
31,0.0
32,0.0
33,0.0
34,0.0
2,1, 7, 1, 0,11,30.00,45.00,Saturday
7,18.150000000000002
8,7.075
9,302.5
10,17.78032538116775
11,16.36010958356063
12,1.5570706356935018
13,0.452981149891958
14,0.452981149891958
15,2.619412736331757
16,2.619412736331757
17,0.08387296405614447
18,0.0
19,0.0
20,0.0838628602356598
21,37.87861073250402
22,0.0
23,0.0
24,0.0
25,0.0
26,0.0
27,0.0
28,0.0
29,75.38016433658152
30,100.50688578210868
31,0.0
32,0.0
33,0.0
34,0.0
2,1, 7, 1, 0,11,45.00,60.00,Saturday
7,18.1
8,7.2
9,300.0
10,17.81014838196888
11,16.53387826310761
12,1.6069074634484435
13,0.24480022007680544
14,0.24480022007680544
15,2.937602640921665
16,2.937602640921665
17,0.09348790599360096
18,0.0
19,0.0
20,0.09348790599567157
21,33.114004098756446
22,0.0
23,0.0
24,0.0
25,0.0
26,0.0
27,0.0
28,0.0
29,84.05468588858885
30,112.07291451811847
31,0.0
32,0.0
33,0.0
34,0.0
2,1, 7, 1, 0,12, 0.00,15.00,Saturday
7,18.075000000000003
8,7.325
9,297.5
10,17.84196787955595
11,16.717330412329048
12,1.5334134248819524
13,-0.06334669956773194
14,-0.06334669956773194
15,3.103988278818857
16,3.103988278818857
17,0.10138143030043403
18,0.0
19,0.0
20,0.10138719108065389
21,28.874799833412222
22,0.0
23,0.0
24,0.0
25,0.0
26,0.0
27,0.0
28,0.0
29,91.17471502115687
30,121.56628669487583
31,0.0
32,0.0
33,0.0
34,0.0
2,1, 7, 1, 0,12,15.00,30.00,Saturday
7,18.05
8,7.45
9,295.0
10,17.865185451923995
11,16.910087712592752
12,1.4520544725506637
13,-0.3931827979754509
14,-0.3931827979754509
15,3.2765233164620913
16,3.2765233164620913
17,0.10912078859458063
18,0.0
19,0.0
20,0.10912078881272733
21,24.64922771468516
22,0.0
23,0.0
24,0.0
25,0.0
26,0.0
27,0.0
28,0.0
29,98.14557291092126
30,130.86076388122834
31,0.0
32,0.0
33,0.0
34,0.0
2,1, 7, 1, 0,12,30.00,45.00,Saturday
7,18.025
8,7.575
9,292.5
10,17.88046353095944
11,17.11376910952395
12,1.3626790608611676
13,-0.7452649795552653
14,-0.7452649795552653
15,3.45531945066532
16,3.45531945066532
17,0.11672936079548948
18,0.0
19,0.0
20,0.11674963252778574
21,20.626815515573593
22,0.0
23,0.0
24,0.0
25,0.0
26,0.0
27,0.0
28,0.0
29,105.02164726546113
30,140.02886302061484
31,0.0
32,0.0
33,0.0
34,0.0
2,1, 7, 1, 0,12,45.00,60.00,Saturday
7,18.0
8,7.7
9,290.0
10,17.889681083066144
11,17.31732419951627
12,1.2661856476819027
13,-1.1201502805988794
14,-1.1201502805988794
15,3.6404884119463574
16,3.6404884119463574
17,0.12426961806815072
18,0.0
19,0.0
20,0.12427232483955628
21,16.759582026716693
22,0.0
23,0.0
24,0.0
25,0.0
26,0.0
27,0.0
28,0.0
29,111.8017931088759
30,149.0690574785012
31,0.0
32,0.0
33,0.0
34,0.0
2,1, 7, 1, 0,13, 0.00,15.00,Saturday
7,17.95
8,7.825
9,287.5
10,17.872229976910955
11,17.518487262131377
12,1.160049244411742
13,-1.5185513711612428
14,-1.5185513711612428
15,3.8325344129307557
16,3.8325344129307557
17,0.13173476472766305
18,0.0
19,0.0
20,0.13173514633167926
21,12.526462078868663
22,0.0
23,0.0
24,0.0
25,0.0
26,0.0
27,0.0
28,0.0
29,118.5289670058309
30,158.0386226744412
31,0.0
32,0.0
33,0.0
34,0.0
2,1, 7, 1, 0,13,15.00,30.00,Saturday
7,17.9
8,7.949999999999999
9,285.0
10,17.86218239015068
11,17.718295637160008
12,3.909603106031234
13,-1.9409567651169364
14,-1.9409567651169364
15,4.03121789678133
16,4.03121789678133
17,0.19475848029486545
18,0.0
19,0.0
20,0.194758077584047
21,9.006993865191761
22,0.0
23,0.0
24,0.0
25,0.0
26,0.0
27,0.0
28,0.0
29,175.25803661192384
30,233.6773821492318
31,0.0
32,0.0
33,0.0
34,0.0
2,1, 7, 1, 0,13,30.00,45.00,Saturday
7,17.85
8,8.075
9,282.5
10,17.847299273071354
11,17.915914323247158
12,0.9239364784773799
13,-2.3879315847566045
14,-2.3879315847566045
15,4.236652811664944
16,4.236652811664944
17,1.6540119712535555
18,0.0
19,0.0
20,1.6540119868921643
21,5.463681881988581
22,0.0
23,0.0
24,0.0
25,0.0
26,0.0
27,0.0
28,0.0
29,1488.5845122518076
30,1984.7793496690767
31,0.0
32,0.0
33,0.0
34,0.0
2,1, 7, 1, 0,13,45.00,60.00,Saturday
7,17.8
8,8.2
9,280.0
10,17.792331839333468
11,18.109592729341376
12,0.7926550497928031
13,-2.860041332875975
14,-2.860041332875975
15,4.448953184473739
16,4.448953184473739
17,0.1539107390479329
18,0.0
19,0.0
20,0.1539107396831734
21,1.4437831588492787
22,0.0
23,0.0
24,0.0
25,0.0
26,0.0
27,0.0
28,0.0
29,138.51486184578073
30,184.68648246104098
31,0.0
32,0.0
33,0.0
34,0.0
2,1, 7, 1, 0,14, 0.00,15.00,Saturday
7,17.8
8,8.45
9,280.0
10,17.80019066304025
11,18.298153900898065
12,0.8440366370514607
13,-3.037092523359263
14,-3.037092523359263
15,4.724366147447741
16,4.724366147447741
17,1.8331196939831362
18,0.0
19,0.0
20,1.8331196957014415
21,0.0
22,0.0
23,0.42756207882098346
24,0.0
25,0.0
26,0.0
27,0.0
28,0.0
29,1649.7949797528845
30,2199.7266396705127
31,0.0
32,0.0
33,0.0
34,0.0
2,1, 7, 1, 0,14,15.00,30.00,Saturday
7,17.8
8,8.7
9,280.0
10,17.801252703340786
11,18.480909406779134
12,0.8942470910321986
13,-3.2194605664096154
14,-3.2194605664096154
15,5.008049769970512
16,5.008049769970512
17,1.9039325469978539
18,0.0
19,0.0
20,1.9039325488002468
21,0.0
22,0.0
23,2.9177067258213425
24,0.0
25,0.0
26,0.0
27,0.0
28,0.0
29,1713.5323185157126
30,2284.70975802095
31,0.0
32,0.0
33,0.0
34,0.0
2,1, 7, 1, 0,14,30.00,45.00,Saturday
7,17.8
8,8.95
9,280.0
10,17.8018895155361
11,18.657303586205213
12,0.9463187837342869
13,-3.407145462027034
14,-3.407145462027034
15,5.300004052042052
16,5.300004052042052
17,1.9753602666731622
18,0.0
19,0.0
20,1.9753602685464848
21,0.0
22,0.0
23,4.566028563136632
24,0.0
25,0.0
26,0.0
27,0.0
28,0.0
29,1777.8208933968338
30,2370.427857862445
31,0.0
32,0.0
33,0.0
34,0.0
2,1, 7, 1, 0,14,45.00,60.00,Saturday
7,17.8
8,9.2
9,280.0
10,17.802422472004448
11,18.826850211780513
12,0.9998898851985275
13,-3.600147210211519
14,-3.600147210211519
15,5.600228993662362
16,5.600228993662362
17,2.0473891967037146
18,0.0
19,0.0
20,2.0473891986478567
21,0.0
22,0.0
23,6.06737750384757
24,0.0
25,0.0
26,0.0
27,0.0
28,0.0
29,1842.6501836052914
30,2456.8669114737218
31,0.0
32,0.0
33,0.0
34,0.0
2,1, 7, 1, 0,15, 0.00,15.00,Saturday
7,17.8
8,9.475
9,280.0
10,17.80308328084258
11,18.989154518293912
12,1.060308580020249
13,-3.817639632457375
14,-3.817639632457375
15,5.938550539378139
16,5.938550539378139
17,2.1274874042057843
18,0.0
19,0.0
20,2.1274874062283753
21,0.0
22,0.0
23,8.022599474020215
24,0.0
25,0.0
26,0.0
27,0.0
28,0.0
29,1914.742917576641
30,2552.9905567688547
31,0.0
32,0.0
33,0.0
34,0.0
2,1, 7, 1, 0,15,15.00,30.00,Saturday
7,17.8
8,9.75
9,280.0
10,17.803809442334817
11,19.143833899885323
12,1.1224355881833776
13,-4.04145350073078
14,-4.04145350073078
15,6.286705445581212
16,6.286705445581212
17,2.208299010745531
18,0.0
19,0.0
20,2.208299012847956
21,0.0
22,0.0
23,10.286022500045581
24,0.0
25,0.0
26,0.0
27,0.0
28,0.0
29,1987.4784839638498
30,2649.9713119517996
31,0.0
32,0.0
33,0.0
34,0.0
2,1, 7, 1, 0,15,30.00,45.00,Saturday
7,17.8
8,10.025
9,280.0
10,17.804502670552477
11,19.290435669674398
12,1.1863123570013834
13,-4.271584011125237
14,-4.271584011125237
15,6.644686239528145
16,6.644686239528145
17,2.2898099596342236
18,0.0
19,0.0
20,2.2898099618176473
21,0.0
22,0.0
23,12.603493262022441
24,0.0
25,0.0
26,0.0
27,0.0
28,0.0
29,2060.843594495214
30,2747.791459326952
31,0.0
32,0.0
33,0.0
34,0.0
2,1, 7, 1, 0,15,45.00,60.00,Saturday
7,17.8
8,10.3
9,280.0
10,17.805146285736065
11,19.42841249739229
12,1.2519434340014632
13,-4.508026359734257
14,-4.508026359734257
15,7.012485448475509
16,7.012485448475509
17,2.372007246907324
18,0.0
19,0.0
20,2.372007249172632
21,0.0
22,0.0
23,14.918471733331073
24,0.0
25,0.0
26,0.0
27,0.0
28,0.0
29,2134.826400612021
30,2846.435200816028
31,0.0
32,0.0
33,0.0
34,0.0
2,1, 7, 1, 0,16, 0.00,15.00,Saturday
7,17.8
8,10.55
9,280.0
10,17.847743761249877
11,19.557136266429062
12,-4.517216746619881
13,-4.729518370292412
14,-4.729518370292412
15,7.357028576010419
16,7.357028576010419
17,0.2777227511783845
18,0.0
19,0.0
20,0.27772286489832254
21,0.0
22,0.0
23,16.204763397559283
24,0.0
25,0.0
26,0.0
27,0.0
28,0.0
29,249.98949903561774
30,333.3193320474903
31,0.0
32,0.0
33,0.0
34,0.0
2,1, 7, 1, 0,16,15.00,30.00,Saturday
7,17.8
8,10.8
9,280.0
10,17.873066944643522
11,19.67577573785357
12,1.3750818414690111
13,-4.9563219398567595
14,-4.9563219398567595
15,7.709834128666069
16,7.709834128666069
17,0.20281229550301202
18,0.0
19,0.0
20,0.20281229632930653
21,0.0
22,0.0
23,18.11046735182776
24,0.0
25,0.0
26,0.0
27,0.0
28,0.0
29,182.5753769193437
30,243.4338358924583
31,0.0
32,0.0
33,0.0
34,0.0
2,1, 7, 1, 0,16,30.00,45.00,Saturday
7,17.8
8,11.05
9,280.0
10,17.878971172185555
11,19.78474469570541
12,1.4386133212602865
13,-5.188437068427297
14,-5.188437068427297
15,8.07090210644246
16,8.07090210644246
17,0.20750269658527395
18,0.0
19,0.0
20,0.20750269739312707
21,0.0
22,0.0
23,20.02657857889257
24,0.0
25,0.0
26,0.0
27,0.0
28,0.0
29,186.8015520368574
30,249.0687360491432
31,0.0
32,0.0
33,0.0
34,0.0
2,1, 7, 1, 0,16,45.00,60.00,Saturday
7,17.8
8,11.3
9,280.0
10,17.884252863361574
11,19.88570408267367
12,1.5043987462983597
13,-5.425863756004025
14,-5.425863756004025
15,8.440232509339594
16,8.440232509339594
17,0.2121964440637109
18,0.0
19,0.0
20,0.2121964448810978
21,0.0
22,0.0
23,21.849283558372232
24,0.0
25,0.0
26,0.0
27,0.0
28,0.0
29,191.0305027563374
30,254.70733700844985
31,0.0
32,0.0
33,0.0
34,0.0
2,1, 7, 1, 0,17, 0.00,15.00,Saturday
7,17.475
8,11.525000000000002
9,280.0
10,17.592481318264614
11,19.97790104308588
12,1.5554871736248608
13,-5.649643992923114