Program Version,EnergyPlus, Version 22.2.0-c249759bad, YMD=2026.04.30 15:30
1,5,Environment Title[],Latitude[deg],Longitude[deg],Time Zone[],Elevation[m]
2,8,Day of Simulation[],Month[],Day of Month[],DST Indicator[1=yes 0=no],Hour[],StartMinute[],EndMinute[],DayType
3,5,Cumulative Day of Simulation[],Month[],Day of Month[],DST Indicator[1=yes 0=no],DayType  ! When Daily Report Variables Requested
4,2,Cumulative Days of Simulation[],Month[]  ! When Monthly Report Variables Requested
5,1,Cumulative Days of Simulation[] ! When Run Period Report Variables Requested
6,1,Calendar Year of Simulation[] ! When Annual Report Variables Requested
7,1,Environment,Site Outdoor Air Drybulb Temperature [C] !TimeStep
8,1,Environment,Site Outdoor Air Barometric Pressure [Pa] !TimeStep
9,1,Environment,Site Wind Speed [m/s] !TimeStep
10,1,Environment,Site Wind Direction [deg] !TimeStep
11,1,BLOCK `ROOM1` STOREY 0,Zone Mean Air Temperature [C] !TimeStep
12,1,BLOCK `ROOM2` STOREY 0,Zone Mean Air Temperature [C] !TimeStep
13,1,BLOCK `ROOM1` STOREY 0,AFN Node Total Pressure [Pa] !TimeStep
14,1,BLOCK `ROOM2` STOREY 0,AFN Node Total Pressure [Pa] !TimeStep
15,1,AFN_EXTERNAL_NODE_NORTH_ROOM1,AFN Node Total Pressure [Pa] !TimeStep
16,1,AFN_EXTERNAL_NODE_NORTH_ROOM1,AFN Node Wind Pressure [Pa] !TimeStep
17,1,AFN_EXTERNAL_NODE_SOUTH_ROOM1,AFN Node Total Pressure [Pa] !TimeStep
18,1,AFN_EXTERNAL_NODE_SOUTH_ROOM1,AFN Node Wind Pressure [Pa] !TimeStep
19,1,AFN_EXTERNAL_NODE_NORTH_ROOM2,AFN Node Total Pressure [Pa] !TimeStep
20,1,AFN_EXTERNAL_NODE_NORTH_ROOM2,AFN Node Wind Pressure [Pa] !TimeStep
21,1,WINDOW__BLOCK `ROOM1` STOREY 0 WALL 0001,AFN Linkage Node 1 to Node 2 Volume Flow Rate [m3/s] !TimeStep
22,1,WINDOW__BLOCK `ROOM1` STOREY 0 WALL 0001,AFN Linkage Node 2 to Node 1 Volume Flow Rate [m3/s] !TimeStep
23,1,WINDOW__BLOCK `ROOM1` STOREY 0 WALL 0003,AFN Linkage Node 1 to Node 2 Volume Flow Rate [m3/s] !TimeStep
24,1,WINDOW__BLOCK `ROOM1` STOREY 0 WALL 0003,AFN Linkage Node 2 to Node 1 Volume Flow Rate [m3/s] !TimeStep
25,1,DOOR__BLOCK `ROOM1` STOREY 0 WALL 0004_1,AFN Linkage Node 1 to Node 2 Volume Flow Rate [m3/s] !TimeStep
26,1,DOOR__BLOCK `ROOM1` STOREY 0 WALL 0004_1,AFN Linkage Node 2 to Node 1 Volume Flow Rate [m3/s] !TimeStep
27,1,WINDOW__BLOCK `ROOM2` STOREY 0 WALL 0001,AFN Linkage Node 1 to Node 2 Volume Flow Rate [m3/s] !TimeStep
28,1,WINDOW__BLOCK `ROOM2` STOREY 0 WALL 0001,AFN Linkage Node 2 to Node 1 Volume Flow Rate [m3/s] !TimeStep
29,1,DOOR__BLOCK `ROOM2` STOREY 0 WALL 0002_1,AFN Linkage Node 1 to Node 2 Volume Flow Rate [m3/s] !TimeStep
30,1,DOOR__BLOCK `ROOM2` STOREY 0 WALL 0002_1,AFN Linkage Node 2 to Node 1 Volume Flow Rate [m3/s] !TimeStep
31,1,WINDOW__BLOCK `ROOM1` STOREY 0 WALL 0001,AFN Surface Venting Availability Status [] !TimeStep
32,1,WINDOW__BLOCK `ROOM1` STOREY 0 WALL 0003,AFN Surface Venting Availability Status [] !TimeStep
33,1,DOOR__BLOCK `ROOM1` STOREY 0 WALL 0004_1,AFN Surface Venting Availability Status [] !TimeStep
34,1,WINDOW__BLOCK `ROOM2` STOREY 0 WALL 0001,AFN Surface Venting Availability Status [] !TimeStep
35,1,DOOR__BLOCK `ROOM2` STOREY 0 WALL 0002_1,AFN Surface Venting Availability Status [] !TimeStep
36,1,BLOCK `ROOM1` STOREY 0,AFN Zone Ventilation Sensible Heat Gain Rate [W] !TimeStep
37,1,BLOCK `ROOM1` STOREY 0,AFN Zone Mixing Sensible Heat Gain Rate [W] !TimeStep
38,1,BLOCK `ROOM1` STOREY 0,AFN Zone Ventilation Sensible Heat Loss Rate [W] !TimeStep
39,1,BLOCK `ROOM1` STOREY 0,AFN Zone Mixing Sensible Heat Loss Rate [W] !TimeStep
40,1,BLOCK `ROOM2` STOREY 0,AFN Zone Ventilation Sensible Heat Gain Rate [W] !TimeStep
41,1,BLOCK `ROOM2` STOREY 0,AFN Zone Mixing Sensible Heat Gain Rate [W] !TimeStep
42,1,BLOCK `ROOM2` STOREY 0,AFN Zone Ventilation Sensible Heat Loss Rate [W] !TimeStep
43,1,BLOCK `ROOM2` STOREY 0,AFN Zone Mixing Sensible Heat Loss Rate [W] !TimeStep
44,1,BLOCK `ROOM1` STOREY 0,AFN Zone Ventilation Volume [m3] !TimeStep
45,1,BLOCK `ROOM1` STOREY 0,AFN Zone Ventilation Air Change Rate [ach] !TimeStep
46,1,BLOCK `ROOM1` STOREY 0,AFN Zone Mixing Volume [m3] !TimeStep
47,1,BLOCK `ROOM2` STOREY 0,AFN Zone Ventilation Volume [m3] !TimeStep
48,1,BLOCK `ROOM2` STOREY 0,AFN Zone Ventilation Air Change Rate [ach] !TimeStep
49,1,BLOCK `ROOM2` STOREY 0,AFN Zone Mixing Volume [m3] !TimeStep
End of Data Dictionary
1,JULY_1,  37.62,-122.40,  -8.00,   2.00
2,1, 7, 1, 0, 1, 0.00,15.00,Saturday
7,13.150000000000002
8,101450.0
9,6.45
10,285.0
11,13.291822509463
12,13.511348756518583
13,-0.8994293601542817
14,-0.7753250074310188
15,-0.6694133554991595
16,-0.6694133554991595
17,-1.4418133810751126
18,-1.4418133810751126
19,-0.6694133554991595
20,-0.6694133554991595
21,0.0
22,0.14934197739924904
23,0.23432687598172938
24,0.0
25,0.0
26,0.04249112194642131
27,0.0011780060426688345
28,0.08616290083707602
29,0.04249112194642131
30,0.0
31,1.0
32,1.0
33,1.0
34,1.0
35,1.0
36,0.0
37,4.639606493003414
38,26.17809422280695
39,0.0
40,0.0
41,0.0
42,20.911656902040573
43,0.0
44,134.53282727276408
45,179.3771030303521
46,76.57171089510379
47,77.65934241992967
48,103.54578989323956
49,0.0
2,1, 7, 1, 0, 1,15.00,30.00,Saturday
7,13.5
8,101500.0
9,5.9
10,280.0
11,13.618075618068708
12,13.637771039926466
13,-0.855483915813072
14,-0.8649445308350201
15,-0.7747586005812027
16,-0.7747586005812027
17,-1.2051800453485373
18,-1.2051800453485373
19,-0.7747586005812027
20,-0.7747586005812027
21,0.0
22,0.0924676369789941
23,0.18836773766973913
24,0.0
25,0.0014132549736822916
26,0.04936153345152813
27,0.0
28,0.09590009157956059
29,0.04936153345152813
30,0.0014132549736822916
31,1.0
32,1.0
33,1.0
34,1.0
35,1.0
36,0.0
37,2.4892282250020723
38,13.605898018552463
39,0.0
40,0.0
41,0.0
42,16.359316189742483
43,0.1177403757489347
44,83.28857939969497
45,111.05143919959329
46,88.90870140272278
47,86.38606357907146
48,115.1814181054286
49,2.54600188698372
2,1, 7, 1, 0, 1,30.00,45.00,Saturday
7,13.849999999999998
8,101550.0
9,5.35
10,275.0
11,13.934966945923211
12,13.984833430039721
13,-0.8448150117457751
14,-0.8502226679113987
15,-0.8131696846115998
16,-0.8131696846115998
17,-0.9899457030054257
18,-0.9899457030054257
19,-0.8131696846115998
20,-0.8131696846115998
21,0.0
22,0.05889286902210217
23,0.12092219489954947
24,0.0
25,0.001532034444085883
26,0.03254577671364249
27,0.0
28,0.06202932054017686
29,0.03254577671364249
30,0.001532034444085883
31,1.0
32,1.0
33,1.0
34,1.0
35,1.0
36,0.9566134035861424
37,4.12351831895667
38,7.125398568774437
39,0.17823091546579356
40,0.0
41,0.0
42,10.413818879769618
43,0.12956292153578253
44,53.04871036656624
45,70.73161382208832
46,58.62591122048945
47,55.88339337529162
48,74.51119116705549
49,2.7601901946492653
2,1, 7, 1, 0, 1,45.00,60.00,Saturday
7,14.2
8,101600.0
9,4.8
10,270.0
11,14.22931439989867
12,14.252552918162879
13,-0.7893559381963237
14,-0.7939524744838462
15,-0.7960488897263271
16,-0.7960488897263271
17,-0.7960488897263271
18,-0.7960488897263271
19,-0.7960488897263271
20,-0.7960488897263271
21,0.009393896730138572
22,0.0024459148681216917
23,0.009393896730138572
24,0.0024459148681216917
25,0.0078243962422441
26,0.014772181717526471
27,0.0003531593065047737
28,0.014249122866748308
29,0.014772181717526471
30,0.0078243962422441
31,1.0
32,1.0
33,1.0
34,1.0
35,1.0
36,0.30977096503274654
37,0.8685801109348745
38,0.20738381393742827
39,0.0
40,0.2824986808292677
41,0.0
42,1.2185866205823335
43,0.4757426326013421
44,4.4052365985846365
45,5.873648798112849
46,26.596201080353588
47,12.832170552795532
48,17.109560737060708
49,14.087563515553828
2,1, 7, 1, 0, 2, 0.00,15.00,Saturday
7,13.95
8,101600.0
9,4.75
10,272.5
11,14.2275729310984
12,14.1376498154266
13,-0.7314892464633719
14,-0.7334580825722461
15,-0.710674595192848
16,-0.710674595192848
17,-0.7803485751137152
18,-0.7803485751137152
19,-0.710674595192848
20,-0.710674595192848
21,0.0
22,0.036978093117765815
23,0.07576567652320805
24,0.0
25,0.0005061477238113282
26,0.019899389600136413
27,0.0
28,0.038787579504047646
29,0.019899389600136413
30,0.0005061477238113282
31,1.0
32,1.0
33,1.0
34,1.0
35,1.0
36,0.0
37,0.0
38,12.739317580187551
39,4.441951835575555
40,0.0
41,0.11298255152714365
42,9.03369370742445
43,0.0
44,33.31156709985323
45,44.415422799804304
46,35.853394632788884
47,34.93068202779507
48,46.57424270372676
49,0.9115806564787808
2,1, 7, 1, 0, 2,15.00,30.00,Saturday
7,13.7
8,101600.0
9,4.699999999999999
10,275.0
11,13.999695558785
12,13.930832693809592
13,-0.6700741964146884
14,-0.6615924401043214
15,-0.6282186031228392
16,-0.6282186031228392
17,-0.7647878646712825
18,-0.7647878646712825
19,-0.6282186031228392
20,-0.6282186031228392
21,0.0
22,0.05534635912561912
23,0.10418939260360667
24,0.0
25,0.0034080451934856114
26,0.02782886916059715
27,0.0
28,0.04884302794558459
29,0.02782886916059715
30,0.0034080451934856114
31,1.0
32,1.0
33,1.0
34,1.0
35,1.0
36,0.0
37,0.0
38,20.604519532558236
39,4.7614959370680445
40,0.0
41,0.5831136453471978
42,14.005319710476263
43,0.0
44,49.861769990418644
45,66.48235998722485
46,50.152043829648406
47,43.9926508633215
48,58.656867817762
49,6.140382317505751
2,1, 7, 1, 0, 2,30.00,45.00,Saturday
7,13.45
8,101600.0
9,4.6499999999999995
10,277.5
11,13.775029482818638
12,13.679472736638953
13,-0.6042116216672657
14,-0.5959940550647737
15,-0.5486438993009846
16,-0.5486438993009846
17,-0.7493672770940276
18,-0.7493672770940276
19,-0.5486438993009846
20,-0.5486438993009846
21,0.0
22,0.06602148799070703
23,0.12681680729264241
24,0.0
25,0.0012609493064472091
26,0.03165774588543816
27,0.0
28,0.060795313037072175
29,0.03165774588543816
30,0.0012609493064472091
31,1.0
32,1.0
33,1.0
34,1.0
35,1.0
36,0.0
37,0.0
38,26.679040242218015
39,7.52268620566008
40,0.0
41,0.2996336501017365
42,17.344561757228924
43,0.0
44,59.48422649043824
45,79.31230198725099
46,57.05960876882418
47,54.75790070344698
48,73.01053427126264
49,2.272115560850186
2,1, 7, 1, 0, 2,45.00,60.00,Saturday
7,13.2
8,101600.0
9,4.6
10,280.0
11,13.53855761028075
12,13.454132062882145
13,-0.5414413904575428
14,-0.5298617887592353
15,-0.47191328428995144
16,-0.47191328428995144
17,-0.7340873311177022
18,-0.7340873311177022
19,-0.47191328428995144
20,-0.47191328428995144
21,0.0
22,0.07560178219982379
23,0.14477304393897317
24,0.0
25,0.0019305759718259363
26,0.03651522400247343
27,0.0
28,0.06917125439906362
29,0.03651522400247343
30,0.0019305759718259363
31,1.0
32,1.0
33,1.0
34,1.0
35,1.0
36,0.0
37,0.0
38,31.849028007598502
39,7.672683217738467
40,0.0
41,0.4056581402484242
42,21.873419495641087
43,0.0
44,68.11926380414897
45,90.82568507219862
46,65.816756677233
47,62.30744398545592
48,83.07659198060789
49,3.479070066915339
2,1, 7, 1, 0, 3, 0.00,15.00,Saturday
7,12.924999999999999
8,101575.0
9,4.5249999999999995
10,280.0
11,13.310519895612057
12,13.225961140514933
13,-0.5254016243089293
14,-0.5150650079227894
15,-0.4570508030309196
16,-0.4570508030309196
17,-0.7109679158258747
18,-0.7109679158258747
19,-0.4570508030309196
20,-0.4570508030309196
21,0.0
22,0.07417902537807915
23,0.14251736132042145
24,0.0
25,0.0013832658739249461
26,0.03555146188102287
27,0.0
28,0.06833832867206521
29,0.03555146188102287
30,0.0013832658739249461
31,1.0
32,1.0
33,1.0
34,1.0
35,1.0
36,0.0
37,0.0
38,35.608969968315314
39,7.487161324191399
40,0.0
41,0.2913167055403994
42,25.60980489953304
43,0.0
44,66.84828277951769
45,89.13104370602359
46,64.09125188068066
47,61.567287074101955
48,82.08971609880261
49,2.493196892908689
2,1, 7, 1, 0, 3,15.00,30.00,Saturday
7,12.649999999999999
8,101550.0
9,4.449999999999999
10,280.0
11,13.081884093609357
12,13.002734745174848
13,-0.5102399480921146
14,-0.4997255952480279
15,-0.4424128138323637
16,-0.4424128138323637
17,-0.688197710405899
18,-0.688197710405899
19,-0.4424128138323637
20,-0.4424128138323637
21,0.0
22,0.07306444598839401
23,0.1400974766495493
24,0.0
25,0.0016643843459476194
26,0.03517994535279626
27,0.0
28,0.06703302341871654
29,0.03517994535279626
30,0.0016643843459476194
31,1.0
32,1.0
33,1.0
34,1.0
35,1.0
36,0.0
37,0.0
38,39.31924866031086
39,6.939757444627574
40,0.0
41,0.3283240931638772
42,29.462456507892874
43,0.0
44,65.85460427988667
45,87.8061390398489
46,63.43172147103649
47,60.40229133650787
48,80.53638844867716
49,3.0004485306830837
2,1, 7, 1, 0, 3,30.00,45.00,Saturday
7,12.375
8,101525.0
9,4.375
10,280.0
11,12.854491663962577
12,12.775912164473848
13,-0.4950475387046678
14,-0.4850737917399732
15,-0.4279999885511532
16,-0.4279999885511532
17,-0.6657777599684604
18,-0.6657777599684604
19,-0.4279999885511532
20,-0.4279999885511532
21,0.0
22,0.07178932691891864
23,0.13776043208974217
24,0.0
25,0.001517205973608361
26,0.034501818427697895
27,0.0
28,0.06597109796137272
29,0.034501818427697895
30,0.001517205973608361
31,1.0
32,1.0
33,1.0
34,1.0
35,1.0
36,0.0
37,0.0
38,42.92138726955582
39,6.761665733221803
40,0.0
41,0.2973419984655456
42,32.97886869650098
43,0.0
44,64.7161813907396
45,86.28824185431948
46,62.21941668170869
47,59.455499358167316
48,79.27399914422308
49,2.7355826226634927
2,1, 7, 1, 0, 3,45.00,60.00,Saturday
7,12.1
8,101500.0
9,4.3
10,280.0
11,12.625321320883067
12,12.550607935251143
13,-0.4802843211787196
14,-0.4703857131747236
15,-0.4138129986758095
16,-0.4138129986758095
17,-0.6437091090512591
18,-0.6437091090512591
19,-0.4138129986758095
20,-0.4138129986758095
21,0.0
22,0.07061820646634571
23,0.13536741530553476
24,0.0
25,0.0016508037778957283
26,0.03402448457322722
27,0.0
28,0.06474920164018898
29,0.03402448457322722
30,0.0016508037778957283
31,1.0
32,1.0
33,1.0
34,1.0
35,1.0
36,0.0
37,0.0
38,46.28879866325219
39,6.344447608964046
40,0.0
41,0.30782062426246365
42,36.40553788679052
43,0.0
44,63.67076746234186
45,84.89435661645581
46,61.368404065222585
47,58.36450512976434
48,77.81934017301911
49,2.976978226780161
2,1, 7, 1, 0, 4, 0.00,15.00,Saturday
7,11.85
8,101500.0
9,4.25
10,282.5
11,12.386519716778244
12,12.29066076989482
13,-0.42542344530469445
14,-0.41570728560813097
15,-0.34845437220972997
16,-0.34845437220972997
17,-0.6294659627014477
18,-0.6294659627014477
19,-0.34845437220972997
20,-0.34845437220972997
21,0.0
22,0.07754384131345189
23,0.1498557100267719
24,0.0
25,0.0005561789231191088
26,0.03671108096469249
27,0.0
28,0.07231186105667886
29,0.03671108096469249
30,0.0005561789231191088
31,1.0
32,1.0
33,1.0
34,1.0
35,1.0
36,0.0
37,0.0
38,51.95638411766118
39,8.790241245753874
40,0.0
41,0.1331736026711551
42,39.79420648335024
43,0.0
44,69.9180033979288
45,93.22400453057173
46,66.21569137356855
47,65.17934535688218
48,86.90579380917625
49,1.0029334331703328
2,1, 7, 1, 0, 4,15.00,30.00,Saturday
7,11.6
8,101500.0
9,4.199999999999999
10,285.0
11,12.133964000771693
12,12.043983284974784
13,-0.37326715838134994
14,-0.36140812562425917
15,-0.28570619945998377
16,-0.28570619945998377
17,-0.6153671988368881
18,-0.6153671988368881
19,-0.28570619945998377
20,-0.28570619945998377
21,0.0
22,0.08403840580266485
23,0.1621901482166774
24,0.0
25,0.0008106493105890024
26,0.039885386898631824
27,0.0
28,0.0781517372447539
29,0.039885386898631824
30,0.0008106493105890024
31,1.0
32,1.0
33,1.0
34,1.0
35,1.0
36,0.0
37,0.0
38,56.087728404648175
39,8.972325055482711
40,0.0
41,0.18235774267635327
42,43.369391026822456
43,0.0
44,75.77338297606353
45,101.03117730141804
46,71.93981577734274
47,70.44411796793104
48,93.92549062390805
49,1.4618103953976382
2,1, 7, 1, 0, 4,30.00,45.00,Saturday
7,11.35
8,101500.0
9,4.1499999999999995
10,287.5
11,11.887553327040855
12,11.790929793555161
13,-0.32208379249688773
14,-0.31071030253010457
15,-0.22553000099138784
16,-0.22553000099138784
17,-0.6014133359770343
18,-0.6014133359770343
19,-0.22553000099138784
20,-0.22553000099138784
21,0.0
22,0.08929950193481065
23,0.1733121365797096
24,0.0
25,0.00007425433710716332
26,0.042074657577791226
27,0.0
28,0.08399016593739796
29,0.042074657577791226
30,0.00007425433710716332
31,1.0
32,1.0
33,1.0
34,1.0
35,1.0
36,0.0
37,0.0
38,60.05113609268054
39,10.172239178182652
40,0.0
41,0.01795220497457275
42,46.3285301449232
43,0.0
44,80.51821970577053
45,107.35762627436071
46,75.88948758251433
47,75.70607192261244
48,100.94142923014992
49,0.13389755170552414
2,1, 7, 1, 0, 4,45.00,60.00,Saturday
7,11.1
8,101500.0
9,4.1
10,290.0
11,11.63881922284972
12,11.543326455433345
13,-0.27357154993306576
14,-0.26133861197684227
15,-0.16788711219837982
16,-0.16788711219837982
17,-0.5876048926943293
18,-0.5876048926943293
19,-0.16788711219837982
20,-0.16788711219837982
21,0.0
22,0.09424681493884803
23,0.18308626294977925
24,0.0
25,4.1365953088549243e-7
26,0.04441861796486154
27,0.0
28,0.08883944730472874
29,0.04441861796486154
30,4.1365953088549243e-7
31,1.0
32,1.0
33,1.0
34,1.0
35,1.0
36,0.0
37,0.0
38,63.58188432034957
39,10.622351017048869
40,0.0
41,0.00009892331053815051
42,49.312057989842806
43,0.0
44,84.97958662102127
45,113.30611549469502
46,80.11729942167447
47,80.07785562880608
48,106.77047417174144
49,0.0007459278640060152
2,1, 7, 1, 0, 5, 0.00,15.00,Saturday
7,11.274999999999999
8,101500.0
9,4.1
10,290.0
11,11.595013797505066
12,11.648514165564833
13,-0.2635345729747604
14,-0.25142215119834194
15,-0.16778071235140835
16,-0.16778071235140835
17,-0.5872324932299291
18,-0.5872324932299291
19,-0.16778071235140835
20,-0.16778071235140835
21,0.0
22,0.09429566191928927
23,0.18323311257336505
24,0.0
25,0.0
26,0.0444667319648395
27,0.0
28,0.08893745061084214
29,0.0444667319648395
30,0.0
31,1.0
32,1.0
33,1.0
34,1.0
35,1.0
36,0.0
37,5.953728933131695
38,37.75878053847888
39,0.0
40,0.0
41,0.0
42,41.56705884708257
43,0.0
44,84.95923820885591
45,113.27898427847454
46,80.12900686947394
47,80.14658908231155
48,106.8621187764154
49,0.0
2,1, 7, 1, 0, 5,15.00,30.00,Saturday
7,11.45
8,101500.0
9,4.1
10,290.0
11,11.710559365499872
12,11.764983334373513
13,-0.2539834438854276
14,-0.2561583601760224
15,-0.16767462996533805
16,-0.16767462996533805
17,-0.5868612048786832
18,-0.5868612048786832
19,-0.16767462996533805
20,-0.16767462996533805
21,0.0
22,0.09196418432064453
23,0.18449530551896476
24,0.0
25,0.0
26,0.046264159844325296
27,0.0
28,0.09253106353787385
29,0.046264159844325296
30,0.0
31,1.0
32,1.0
33,1.0
34,1.0
35,1.0
36,0.0
37,6.297468025487698
38,29.965184649652244
39,0.0
40,0.0
41,0.0
42,36.447410401476255
43,0.0
44,82.8413247957258
45,110.45509972763439
46,83.34974882714916
47,83.36773934243303
48,111.1569857899107
49,0.0
2,1, 7, 1, 0, 5,30.00,45.00,Saturday
7,11.625000000000002
8,101500.0
9,4.1
10,290.0
11,11.831345029705368
12,11.885235174387073
13,-0.25245880426646705
14,-0.25495425978485
15,-0.16756886872979151
16,-0.16756886872979151
17,-0.5864910405542703
18,-0.5864910405542703
19,-0.16756886872979151
20,-0.16756886872979151
21,0.0
22,0.0919196467692468
23,0.18453765320677154
24,0.0
25,0.0
26,0.04630763959979695
27,0.0
28,0.09261797758183646
29,0.04630763959979695
30,0.0
31,1.0
32,1.0
33,1.0
34,1.0
35,1.0
36,0.0
37,6.237750381633282
38,23.704347262900846
39,0.0
40,0.0
41,0.0
42,30.12221695902496
43,0.0
44,82.78536191978264
45,110.38048255971019
46,83.41273775204117
47,83.42997481574658
48,111.23996642099543
49,0.0
2,1, 7, 1, 0, 5,45.00,60.00,Saturday
7,11.8
8,101500.0
9,4.1
10,290.0
11,12.134719495779539
12,12.479846150626269
13,-0.27509214466109
14,-0.17408904187558844
15,-0.16746343238267147
16,-0.16746343238267147
17,-0.5861220133393501
18,-0.5861220133393501
19,-0.16746343238267147
20,-0.16746343238267147
21,0.0062315406113673515
22,0.07239971052587879
23,0.07375322822759535
24,0.0
25,0.00389958851287276
26,0.007692008313087127
27,0.0031767205745839144
28,0.010761770746008953
29,0.007692008313087127
30,0.00389958851287276
31,1.0
32,1.0
33,1.0
34,1.0
35,1.0
36,0.0
37,0.8260487940891557
38,18.006714236584997
39,0.38153509449410555
40,0.0
41,0.20586610674025843
42,8.40369587247749
43,0.0
44,65.203513142111
45,86.93801752281468
46,13.877295741530993
47,9.711114646285578
48,12.948152861714103
49,7.035458731293613
2,1, 7, 1, 0, 6, 0.00,15.00,Saturday
7,12.000000000000002
8,101500.0
9,4.1
10,292.5
11,12.223663088206813
12,12.158102408676054
13,-0.2134756854092471
14,-0.2146508347662343
15,-0.11504280774303512
16,-0.11504280774303512
17,-0.5856724757827242
18,-0.5856724757827242
19,-0.11504280774303512
20,-0.11504280774303512
21,0.0
22,0.09777321688100268
23,0.19552829755423967
24,0.0
25,0.0019244169258319204
26,0.050800479946315806
27,0.0
28,0.09775508040528162
29,0.050800479946315806
30,0.0019244169258319204
31,1.0
32,1.0
33,1.0
34,1.0
35,1.0
36,0.0
37,0.0
38,27.101481743136514
39,8.912084076861749
40,0.0
41,0.6793688043076538
42,19.34600678830402
43,0.0
44,88.1061139587197
45,117.47481861162626
46,91.5604702550587
47,88.07179542550563
48,117.42906056734083
49,3.4692701843150884
2,1, 7, 1, 0, 6,15.00,30.00,Saturday
7,12.2
8,101500.0
9,4.1
10,295.0
11,12.403299235420828
12,12.472543149932571
13,-0.22177715483995758
14,-0.14019366125340832
15,-0.0627025421755786
16,-0.0627025421755786
17,-0.5852237269720669
18,-0.5852237269720669
19,-0.0627025421755786
20,-0.0627025421755786
21,0.0
22,0.12223814555276519
23,0.19227511903320205
24,0.0
25,0.004295123112847383
26,0.03931199528909104
27,0.0011666848113568895
28,0.07120365268225312
29,0.03931199528909104
30,0.004295123112847383
31,1.0
32,1.0
33,1.0
34,1.0
35,1.0
36,0.0
37,0.7924269729107789
38,27.64689267509437
39,13.477010331926602
40,0.0
41,1.9704153908513278
42,13.448195169492251
43,0.025444798325763428
44,110.127608574432
45,146.83681143257598
46,70.88400351829918
47,64.16433792514486
48,85.55245056685982
49,7.741532730998264
2,1, 7, 1, 0, 6,30.00,45.00,Saturday
7,12.399999999999999
8,101500.0
9,4.1
10,297.5
11,12.626817345336653
12,12.487847289872693
13,-0.1137553243563093
14,-0.14557748709829613
15,-0.010442424550200663
16,-0.010442424550200663
17,-0.5847757748112359
18,-0.5847757748112359
19,-0.010442424550200663
20,-0.010442424550200663
21,0.0
22,0.10395107505033974
23,0.21833839384470183
24,0.0
25,0.007048329146684323
26,0.06423960493408248
27,0.0
28,0.11438731182409846
29,0.06423960493408248
30,0.007048329146684323
31,1.0
32,1.0
33,1.0
34,1.0
35,1.0
36,0.0
37,0.0
38,29.387610855267383
39,22.25432907812371
40,0.0
41,2.441731023131239
42,12.524640064052265
43,0.0
44,93.62811074354556
45,124.83748099139409
46,115.71519756555585
47,102.97745267124405
48,137.3032702283254
49,12.689954798019292
2,1, 7, 1, 0, 6,45.00,60.00,Saturday
7,12.6
8,101500.0
9,4.1
10,300.0
11,12.729070053882772
12,12.746894196309647
13,-0.02611985627142443
14,-0.021017454009667272
15,0.041737759096792386
16,0.041737759096792386
17,-0.5843286273550935
18,-0.5843286273550935
19,0.041737759096792386
20,0.041737759096792386
21,0.0
22,0.0565134662549801
23,0.11345246340670491
24,0.0
25,0.008245793781531865
26,0.036714359927504193
27,0.0017358097468460649
28,0.05867430941560987
29,0.036714359927504193
30,0.008245793781531865
31,1.0
32,1.0
33,1.0
34,1.0
35,1.0
36,0.0
37,1.1281813758691814
38,9.562313928108393
39,1.2385689148570977
40,0.0
41,0.0
42,8.801099450129996
43,1.0941793452668336
44,50.885365918215214
45,67.84715455762029
46,66.12252429775351
47,52.829581216213676
48,70.43944162161823
49,14.861444955151777
2,1, 7, 1, 0, 7, 0.00,15.00,Saturday
7,12.774999999999999
8,101500.0
9,4.1
10,300.0
11,12.952976278171114
12,12.847425453704126
13,-0.08614484606928652
14,-0.08987335633330489
15,0.041711775272390436
16,0.041711775272390436
17,-0.5839648538134662
18,-0.5839648538134662
19,0.041711775272390436
20,0.041711775272390436
21,0.0
22,0.11263555151600388
23,0.22592204683054473
24,0.0
25,0.0029684815065619333
26,0.059609376300485406
27,0.0
28,0.11328649322003115
29,0.059609376300485406
30,0.0029684815065619333
31,1.0
32,1.0
33,1.0
34,1.0
35,1.0
36,0.0
37,0.0
38,24.589268790478148
39,16.92464553350806
40,0.0
41,1.3899774004553636
42,10.11293079555667
43,0.0
44,101.46963782002436
45,135.29285042669915
46,107.40949888191622
47,102.0217895477237
48,136.02905273029825
49,5.348055739120036
2,1, 7, 1, 0, 7,15.00,30.00,Saturday
7,12.95
8,101500.0
9,4.1
10,300.0
11,13.08407807186339
12,13.013352795053006
13,-0.08561503860341446
14,-0.088024662232875
15,0.04168587810678408
16,0.04168587810678408
17,-0.583602293494977
18,-0.583602293494977
19,0.04168587810678408
20,0.04168587810678408
21,0.0
22,0.11278434069680468
23,0.22587710442982245
24,0.0
25,0.0011423494685147255
26,0.05768227613914516
27,0.0
28,0.11309191579477315
29,0.05768227613914516
30,0.0011423494685147255
31,1.0
32,1.0
33,1.0
34,1.0
35,1.0
36,0.0
37,0.0
38,18.657157827647225
39,10.618464707329368
40,0.0
41,0.38577403996883597
42,8.863220717797908
43,0.0
44,101.5887658444142
45,135.45168779255226
46,103.92088414486668
47,101.84300152995536
48,135.79066870660714
49,2.058200509778242
2,1, 7, 1, 0, 7,30.00,45.00,Saturday
7,13.125000000000002
8,101500.0
9,4.1
10,300.0
11,13.24064545753322
12,13.176140298585612
13,-0.08539706201407646
14,-0.08693452413709554
15,0.041660068622416085
16,0.041660068622416085
17,-0.5832409607138251
18,-0.5832409607138251
19,0.041660068622416085
20,0.041660068622416085
21,0.0
22,0.11289506865556465
23,0.22583291866837651
24,0.0
25,0.0006008566355862405
26,0.0570659685331429
27,0.0
28,0.11293718131627473
29,0.0570659685331429
30,0.0006008566355862405
31,1.0
32,1.0
33,1.0
34,1.0
35,1.0
36,0.0
37,0.0
38,16.112711726414602
39,9.465338828399508
40,0.0
41,0.18434585170012963
42,7.136348864205091
43,0.0
44,101.68224633678881
45,135.57632844905174
46,102.80179314202223
47,101.6991942412127
48,135.59892565495028
49,1.0825315640588131
2,1, 7, 1, 0, 7,45.00,60.00,Saturday
7,13.3
8,101500.0
9,4.1
10,300.0
11,13.392854327289594
12,13.340367831796952
13,-0.08523492441124197
14,-0.08567805562601882
15,0.0416343478545884
16,0.0416343478545884
17,-0.5828808699642377
18,-0.5828808699642377
19,0.0416343478545884
20,0.0416343478545884
21,0.0
22,0.11303309280266663
23,0.22577554916700387
24,0.0
25,0.000021526888128593014
26,0.05639107386256329
27,0.0
28,0.11274245634592775
29,0.05639107386256329
30,0.000021526888128593014
31,1.0
32,1.0
33,1.0
34,1.0
35,1.0
36,0.0
37,0.0
38,12.968855763608262
39,7.501518432286088
40,0.0
41,0.005323175874600972
42,5.619981242144185
43,0.0
44,101.79869503919483
45,135.7315933855931
46,101.57734640162239
47,101.51985774691948
48,135.35981032922598
49,0.03878242727342124
2,1, 7, 1, 0, 8, 0.00,15.00,Saturday
7,13.725000000000001
8,101500.0
9,4.324999999999999
10,300.0
11,13.671554451279473
12,13.671444149931638
13,-0.11718528603520266
14,-0.10102514086747982
15,0.04625975011132047
16,0.04625975011132047
17,-0.6476365015584867
18,-0.6476365015584867
19,0.04625975011132047
20,0.04625975011132047
21,0.0
22,0.060423826192468055
23,0.1193231483478405
24,0.0
25,0.0
26,0.029448588293584172
27,0.0
28,0.05889932104463128
29,0.029448588293584172
30,0.0
31,1.0
32,1.0
33,1.0
34,1.0
35,1.0
36,2.625575695054941
37,3.7349955210030137
38,0.0
39,0.014709948466282815
40,0.035288896353037176
41,0.0
42,1.1969873127695125
43,0.0
44,54.37356642571409
45,72.4980885676188
46,53.00003168836951
47,53.011074621601026
48,70.68143282880136
49,0.0
2,1, 7, 1, 0, 8,15.00,30.00,Saturday
7,14.15
8,101500.0
9,4.55
10,300.0
11,14.049065969467659
12,14.033671239000743
13,-0.3341837663839396
14,-0.32804027265699587
15,0.051121703137027255
16,0.051121703137027255
17,-0.7157038439183817
18,-0.7157038439183817
19,0.051121703137027255
20,0.051121703137027255
21,0.0
22,0.09930198461725796
23,0.19710377500551413
24,0.0
25,0.009584905475804645
26,0.05848441267918226
27,0.0
28,0.09780179038802056
29,0.05848441267918226
30,0.009584905475804645
31,1.0
32,1.0
33,1.0
34,1.0
35,1.0
36,2.8790090495078355
37,20.05823926757269
38,0.0
39,4.779207371574637
40,1.6632857550422087
41,4.679381345010081
42,0.0
43,0.0
44,89.43140297586659
45,119.24187063448879
46,105.22900462477331
47,88.0152485488466
48,117.35366473179546
49,17.252930441341732
2,1, 7, 1, 0, 8,30.00,45.00,Saturday
7,14.575
8,101500.0
9,4.775
10,300.0
11,14.546951372116908
12,14.473276562763465
13,-0.23189437074908684
14,-0.028777087044382057
15,0.056219291280294424
16,0.056219291280294424
17,-0.787070077924122
18,-0.787070077924122
19,0.056219291280294424
20,0.056219291280294424
21,0.0
22,0.16858617732221626
23,0.23651008249607441
24,0.0
25,0.0
26,0.033960778957431666
27,0.0006820272403525447
28,0.06860593228328465
29,0.033960778957431666
30,0.0
31,1.0
32,1.0
33,1.0
34,1.0
35,1.0
36,5.18897290670514
37,0.13808187384285991
38,1.0339187485823091
39,0.27401752766062476
40,5.515586207561792
41,0.0
42,0.0
43,0.0
44,151.75865637390638
45,202.34487516520852
46,61.16276118570661
47,61.776298333510866
48,82.36839777801448
49,0.0
2,1, 7, 1, 0, 8,45.00,60.00,Saturday
7,15.0
8,101500.0
9,5.0
10,300.0
11,14.92907428075851
12,14.921413168861822
13,-0.11944155612321306
14,-0.12133312574828292
15,0.061551626127562424
16,0.061551626127562424
17,-0.8617227657858739
18,-0.8617227657858739
19,0.061551626127562424
20,0.061551626127562424
21,0.0
22,0.13774405798959183
23,0.2755187115341014
24,0.0
25,0.0
26,0.06888472147567407
27,0.0
28,0.13777465313194076
29,0.06888472147567407
30,0.0
31,1.0
32,1.0
33,1.0
34,1.0
35,1.0
36,12.06102611320624
37,1.6695576786459734
38,0.0
39,3.0294321710759804
40,13.43940786298579
41,0.0
42,0.0
43,0.0
44,123.98361736099895
45,165.31148981466526
46,124.01092934526878
47,124.00862580159858
48,165.34483440213143
49,0.0
2,1, 7, 1, 0, 9, 0.00,15.00,Saturday
7,15.4
8,101500.0
9,5.2
10,302.5
11,15.201869405114316
12,15.300172657784394
13,-0.0836764375333019
14,-0.06355692877033317
15,0.12742209456864997
16,0.12742209456864997
17,-0.9113449807192576
18,-0.9113449807192576
19,0.12742209456864997
20,0.12742209456864997
21,0.0
22,0.14859793694812617
23,0.2912211741648398
24,0.0
25,0.0024374965352875182
26,0.07374710017325606
27,0.0
28,0.14262323720962172
29,0.07374710017325606
30,0.0024374965352875182
31,1.0
32,1.0
33,1.0
34,1.0
35,1.0
36,36.711548836468715
37,17.900827714215016
38,0.0
39,0.0
40,17.438604532306194
41,0.0
42,0.0
43,1.0900656472639705
44,133.69483841555854
45,178.25978455407807
46,132.70484373472652
47,128.3616550936662
48,171.1488734582216
49,4.389076299312467
2,1, 7, 1, 0, 9,15.00,30.00,Saturday
7,15.8
8,101500.0
9,5.4
10,305.0
11,15.566239176139483
12,15.686929098271118
13,-0.03363738875117612
14,-0.010330716070521249
15,0.20284887650794647
16,0.20284887650794647
17,-0.960549091699394