Program Version,EnergyPlus, Version 22.2.0-c249759bad, YMD=2025.11.01 17:29
1,5,Environment Title[],Latitude[deg],Longitude[deg],Time Zone[],Elevation[m]
2,8,Day of Simulation[],Month[],Day of Month[],DST Indicator[1=yes 0=no],Hour[],StartMinute[],EndMinute[],DayType
3,5,Cumulative Day of Simulation[],Month[],Day of Month[],DST Indicator[1=yes 0=no],DayType  ! When Daily Report Variables Requested
4,2,Cumulative Days of Simulation[],Month[]  ! When Monthly Report Variables Requested
5,1,Cumulative Days of Simulation[] ! When Run Period Report Variables Requested
6,1,Calendar Year of Simulation[] ! When Annual Report Variables Requested
7,1,Environment,Site Outdoor Air Drybulb Temperature [C] !TimeStep
8,1,Environment,Site Wind Speed [m/s] !TimeStep
9,1,Environment,Site Wind Direction [deg] !TimeStep
10,1,BLOCK `ROOM1` STOREY 0,Zone Mean Air Temperature [C] !TimeStep
11,1,BLOCK `ROOM2` STOREY 0,Zone Mean Air Temperature [C] !TimeStep
End of Data Dictionary
1,JULY_1,  37.62,-122.40,  -8.00,   2.00
2,1, 7, 1, 0, 1, 0.00,15.00,Saturday
7,13.150000000000002
8,6.45
9,285.0
10,19.31401899922398
11,19.243570070668014
2,1, 7, 1, 0, 1,15.00,30.00,Saturday
7,13.5
8,5.9
9,280.0
10,19.199342949411204
11,19.136188884615883
2,1, 7, 1, 0, 1,30.00,45.00,Saturday
7,13.849999999999998
8,5.35
9,275.0
10,19.086071991322285
11,19.03264802607714
2,1, 7, 1, 0, 1,45.00,60.00,Saturday
7,14.2
8,4.8
9,270.0
10,18.977843757896682
11,18.930672389604386
2,1, 7, 1, 0, 2, 0.00,15.00,Saturday
7,13.95
8,4.75
9,272.5
10,18.873329593633805
11,18.830562842597665
2,1, 7, 1, 0, 2,15.00,30.00,Saturday
7,13.7
8,4.699999999999999
9,275.0
10,18.770700309208575
11,18.732454800682685
2,1, 7, 1, 0, 2,30.00,45.00,Saturday
7,13.45
8,4.6499999999999995
9,277.5
10,18.6695676621868
11,18.63649605129916
2,1, 7, 1, 0, 2,45.00,60.00,Saturday
7,13.2
8,4.6
9,280.0
10,18.570132638229257
11,18.542571654181717
2,1, 7, 1, 0, 3, 0.00,15.00,Saturday
7,12.924999999999999
8,4.5249999999999995
9,280.0
10,18.472406267126374
11,18.450708894655293
2,1, 7, 1, 0, 3,15.00,30.00,Saturday
7,12.649999999999999
8,4.449999999999999
9,280.0
10,18.376313317691256
11,18.360046671969904
2,1, 7, 1, 0, 3,30.00,45.00,Saturday
7,12.375
8,4.375
9,280.0
10,18.281158661715665
11,18.269536930660202
2,1, 7, 1, 0, 3,45.00,60.00,Saturday
7,12.1
8,4.3
9,280.0
10,18.18686179399585
11,18.17934895485919
2,1, 7, 1, 0, 4, 0.00,15.00,Saturday
7,11.85
8,4.25
9,282.5
10,18.09352620771964
11,18.089732117946564
2,1, 7, 1, 0, 4,15.00,30.00,Saturday
7,11.6
8,4.199999999999999
9,285.0
10,18.000684393592163
11,18.000561906673493
2,1, 7, 1, 0, 4,30.00,45.00,Saturday
7,11.35
8,4.1499999999999995
9,287.5
10,17.90806581462316
11,17.911608866310303
2,1, 7, 1, 0, 4,45.00,60.00,Saturday
7,11.1
8,4.1
9,290.0
10,17.815657110478057
11,17.82272796204022
2,1, 7, 1, 0, 5, 0.00,15.00,Saturday
7,11.274999999999999
8,4.1
9,290.0
10,17.723543541958698
11,17.73382641669095
2,1, 7, 1, 0, 5,15.00,30.00,Saturday
7,11.45
8,4.1
9,290.0
10,17.63198831231579
11,17.64486797908694
2,1, 7, 1, 0, 5,30.00,45.00,Saturday
7,11.625000000000002
8,4.1
9,290.0
10,17.541274020732498
11,17.555959687954324
2,1, 7, 1, 0, 5,45.00,60.00,Saturday
7,11.8
8,4.1
9,290.0
10,17.452512654231683
11,17.46731232098933
2,1, 7, 1, 0, 6, 0.00,15.00,Saturday
7,12.000000000000002
8,4.1
9,292.5
10,17.367060968155243
11,17.37927803410547
2,1, 7, 1, 0, 6,15.00,30.00,Saturday
7,12.2
8,4.1
9,295.0
10,17.284079579609237
11,17.29250173996691
2,1, 7, 1, 0, 6,30.00,45.00,Saturday
7,12.399999999999999
8,4.1
9,297.5
10,17.203340487498114
11,17.207810974870448
2,1, 7, 1, 0, 6,45.00,60.00,Saturday
7,12.6
8,4.1
9,300.0
10,17.126353846672128
11,17.126343563254817
2,1, 7, 1, 0, 7, 0.00,15.00,Saturday
7,12.774999999999999
8,4.1
9,300.0
10,17.053823966001165
11,17.049202961833
2,1, 7, 1, 0, 7,15.00,30.00,Saturday
7,12.95
8,4.1
9,300.0
10,16.985405166398248
11,16.977782850801887
2,1, 7, 1, 0, 7,30.00,45.00,Saturday
7,13.125000000000002
8,4.1
9,300.0
10,16.92281171291611
11,16.913831156629893
2,1, 7, 1, 0, 7,45.00,60.00,Saturday
7,13.3
8,4.1
9,300.0
10,16.86850221813111
11,16.85913726994153
2,1, 7, 1, 0, 8, 0.00,15.00,Saturday
7,13.725000000000001
8,4.324999999999999
9,300.0
10,16.82208956529501
11,16.815231963568646
2,1, 7, 1, 0, 8,15.00,30.00,Saturday
7,14.15
8,4.55
9,300.0
10,16.783446050615815
11,16.783348053399376
2,1, 7, 1, 0, 8,30.00,45.00,Saturday
7,14.575
8,4.775
9,300.0
10,16.753366011848982
11,16.764490220637743
2,1, 7, 1, 0, 8,45.00,60.00,Saturday
7,15.0
8,5.0
9,300.0
10,16.732330166944614
11,16.759328130055277
2,1, 7, 1, 0, 9, 0.00,15.00,Saturday
7,15.4
8,5.2
9,302.5
10,16.72051313609144
11,16.76799998162787
2,1, 7, 1, 0, 9,15.00,30.00,Saturday
7,15.8
8,5.4
9,305.0
10,16.717673923604654
11,16.790303363829615
2,1, 7, 1, 0, 9,30.00,45.00,Saturday
7,16.200000000000003
8,5.6
9,307.5
10,16.724030105319624
11,16.823959355803566
2,1, 7, 1, 0, 9,45.00,60.00,Saturday
7,16.6
8,5.8
9,310.0
10,16.738867925346558
11,16.86840402110314
2,1, 7, 1, 0,10, 0.00,15.00,Saturday
7,17.025000000000002
8,6.0249999999999995
9,310.0
10,16.754151061323746
11,16.918623966435653
2,1, 7, 1, 0,10,15.00,30.00,Saturday
7,17.450000000000003
8,6.25
9,310.0
10,16.7769646354745
11,16.977519928155314
2,1, 7, 1, 0,10,30.00,45.00,Saturday
7,17.875
8,6.4750000000000005
9,310.0
10,16.816353351044437
11,17.05520461376705
2,1, 7, 1, 0,10,45.00,60.00,Saturday
7,18.3
8,6.7
9,310.0
10,16.870220203372963
11,17.149326574690317
2,1, 7, 1, 0,11, 0.00,15.00,Saturday
7,18.25
8,6.825
9,307.5
10,16.935028235447653
11,17.255465724886086
2,1, 7, 1, 0,11,15.00,30.00,Saturday
7,18.200000000000003
8,6.95
9,305.0
10,17.010061378008647
11,17.37258127010002
2,1, 7, 1, 0,11,30.00,45.00,Saturday
7,18.150000000000002
8,7.075
9,302.5
10,17.095594755920526
11,17.500673993772967
2,1, 7, 1, 0,11,45.00,60.00,Saturday
7,18.1
8,7.2
9,300.0
10,17.191364455079658
11,17.639011731005947
2,1, 7, 1, 0,12, 0.00,15.00,Saturday
7,18.075000000000003
8,7.325
9,297.5
10,17.296706705874605
11,17.786594959231763
2,1, 7, 1, 0,12,15.00,30.00,Saturday
7,18.05
8,7.45
9,295.0
10,17.410983608555796
11,17.94314548239754
2,1, 7, 1, 0,12,30.00,45.00,Saturday
7,18.025
8,7.575
9,292.5
10,17.53365612710668
11,18.11011635588405
2,1, 7, 1, 0,12,45.00,60.00,Saturday
7,18.0
8,7.7
9,290.0
10,17.664286446217552
11,18.278752428905577
2,1, 7, 1, 0,13, 0.00,15.00,Saturday
7,17.95
8,7.825
9,287.5
10,17.80291401038374
11,18.447114140175245
2,1, 7, 1, 0,13,15.00,30.00,Saturday
7,17.9
8,7.949999999999999
9,285.0
10,17.951467387229517
11,18.615904606704056
2,1, 7, 1, 0,13,30.00,45.00,Saturday
7,17.85
8,8.075
9,282.5
10,18.102179403006993
11,18.784368972190435
2,1, 7, 1, 0,13,45.00,60.00,Saturday
7,17.8
8,8.2
9,280.0
10,18.253103871909875
11,18.950994361456402
2,1, 7, 1, 0,14, 0.00,15.00,Saturday
7,17.8
8,8.45
9,280.0
10,18.405195651010636
11,19.11464901848849
2,1, 7, 1, 0,14,15.00,30.00,Saturday
7,17.8
8,8.7
9,280.0
10,18.558389132871852
11,19.274596983337542
2,1, 7, 1, 0,14,30.00,45.00,Saturday
7,17.8
8,8.95
9,280.0
10,18.711788000875558
11,19.430215585571915
2,1, 7, 1, 0,14,45.00,60.00,Saturday
7,17.8
8,9.2
9,280.0
10,18.864655767153163
11,19.580916382365
2,1, 7, 1, 0,15, 0.00,15.00,Saturday
7,17.8
8,9.475
9,280.0
10,19.016501876318028
11,19.726154102898747
2,1, 7, 1, 0,15,15.00,30.00,Saturday
7,17.8
8,9.75
9,280.0
10,19.166816732747233
11,19.865416970588875
2,1, 7, 1, 0,15,30.00,45.00,Saturday
7,17.8
8,10.025
9,280.0
10,19.31500847102444
11,19.998234887813176
2,1, 7, 1, 0,15,45.00,60.00,Saturday
7,17.8
8,10.3
9,280.0
10,19.460416975400477
11,20.124142515928344
2,1, 7, 1, 0,16, 0.00,15.00,Saturday
7,17.8
8,10.55
9,280.0
10,19.602320488266127
11,20.24260547825717
2,1, 7, 1, 0,16,15.00,30.00,Saturday
7,17.8
8,10.8
9,280.0
10,19.739983233203894
11,20.352982086456144
2,1, 7, 1, 0,16,30.00,45.00,Saturday
7,17.8
8,11.05
9,280.0
10,19.872646557937642
11,20.454686032930937
2,1, 7, 1, 0,16,45.00,60.00,Saturday
7,17.8
8,11.3
9,280.0
10,19.999451216466138
11,20.549680006279058
2,1, 7, 1, 0,17, 0.00,15.00,Saturday
7,17.475
8,11.525000000000002
9,280.0
10,20.119532876122637
11,20.63721396806831
2,1, 7, 1, 0,17,15.00,30.00,Saturday
7,17.15
8,11.75
9,280.0
10,20.232906944517346
11,20.71611768397719
2,1, 7, 1, 0,17,30.00,45.00,Saturday
7,16.825
8,11.974999999999998
9,280.0
10,20.337629243453957
11,20.785900405657372
2,1, 7, 1, 0,17,45.00,60.00,Saturday
7,16.5
8,12.2
9,280.0
10,20.431817544280957
11,20.84635793522379
2,1, 7, 1, 0,18, 0.00,15.00,Saturday
7,16.175
8,12.399999999999999
9,280.0
10,20.52152666972183
11,20.89723773810358
2,1, 7, 1, 0,18,15.00,30.00,Saturday
7,15.85
8,12.6
9,280.0
10,20.60548065025435
11,20.938327691674623
2,1, 7, 1, 0,18,30.00,45.00,Saturday
7,15.524999999999999
8,12.8
9,280.0
10,20.680479372486563
11,20.969494852620173
2,1, 7, 1, 0,18,45.00,60.00,Saturday
7,15.2
8,13.0
9,280.0
10,20.745485853716374
11,20.99082462529815
2,1, 7, 1, 0,19, 0.00,15.00,Saturday
7,14.874999999999998
8,13.225
9,280.0
10,20.80061057433102
11,21.002369234875474
2,1, 7, 1, 0,19,15.00,30.00,Saturday
7,14.55
8,13.45
9,280.0
10,20.844431077240184
11,21.004118029357976
2,1, 7, 1, 0,19,30.00,45.00,Saturday
7,14.225000000000001
8,13.675
9,280.0
10,20.8758025913993
11,20.99615529017112
2,1, 7, 1, 0,19,45.00,60.00,Saturday
7,13.9
8,13.9
9,280.0
10,20.895008169753147
11,20.978548783595247
2,1, 7, 1, 0,20, 0.00,15.00,Saturday
7,13.8
8,13.375
9,280.0
10,20.902026707684236
11,20.951427342213417
2,1, 7, 1, 0,20,15.00,30.00,Saturday
7,13.7
8,12.850000000000001
9,280.0
10,20.896275112405263
11,20.9148974324626
2,1, 7, 1, 0,20,30.00,45.00,Saturday
7,13.6
8,12.325000000000001
9,280.0
10,20.877567523455166
11,20.868571063549574
2,1, 7, 1, 0,20,45.00,60.00,Saturday
7,13.5
8,11.8
9,280.0
10,20.846746421175574
11,20.814713838822094
2,1, 7, 1, 0,21, 0.00,15.00,Saturday
7,13.425
8,11.3
9,280.0
10,20.808218580747337
11,20.758455166833084
2,1, 7, 1, 0,21,15.00,30.00,Saturday
7,13.35
8,10.8
9,280.0
10,20.763337293770316
11,20.699779783347307
2,1, 7, 1, 0,21,30.00,45.00,Saturday
7,13.274999999999999
8,10.3
9,280.0
10,20.712781537248315
11,20.639038994118184
2,1, 7, 1, 0,21,45.00,60.00,Saturday
7,13.2
8,9.8
9,280.0
10,20.6438977288603
11,20.563388282996037
2,1, 7, 1, 0,22, 0.00,15.00,Saturday
7,13.099999999999998
8,9.275
9,280.0
10,20.563285438889324
11,20.477816116944386
2,1, 7, 1, 0,22,15.00,30.00,Saturday
7,13.0
8,8.75
9,280.0
10,20.47669349651328
11,20.388409091420257
2,1, 7, 1, 0,22,30.00,45.00,Saturday
7,12.900000000000002
8,8.225000000000001
9,280.0
10,20.38598575201964
11,20.29631965077243
2,1, 7, 1, 0,22,45.00,60.00,Saturday
7,12.8
8,7.7
9,280.0
10,20.29079825446514
11,20.200890360147536
2,1, 7, 1, 0,23, 0.00,15.00,Saturday
7,12.8
8,7.625
9,280.0
10,20.191296225410685
11,20.102153030115524
2,1, 7, 1, 0,23,15.00,30.00,Saturday
7,12.8
8,7.550000000000001
9,280.0
10,20.088350995994826
11,20.000734534504776
2,1, 7, 1, 0,23,30.00,45.00,Saturday
7,12.8
8,7.4750000000000005
9,280.0
10,19.982723971913508
11,19.89717106936854
2,1, 7, 1, 0,23,45.00,60.00,Saturday
7,12.8
8,7.4
9,280.0
10,19.874864973217374
11,19.79177673115
2,1, 7, 1, 0,24, 0.00,15.00,Saturday
7,12.8
8,7.300000000000001
9,282.5
10,19.765124801902363
11,19.684796618126228
2,1, 7, 1, 0,24,15.00,30.00,Saturday
7,12.8
8,7.2
9,285.0
10,19.653846831960745
11,19.57645362739887
2,1, 7, 1, 0,24,30.00,45.00,Saturday
7,12.8
8,7.1
9,287.5
10,19.541343432503616
11,19.466910574140375
2,1, 7, 1, 0,24,45.00,60.00,Saturday
7,12.8
8,7.0
9,290.0
10,19.42785636298348
11,19.35616980146472
End of Data
 Number of Records Written=         480
