Program Version,EnergyPlus, Version 22.2.0-c249759bad, YMD=2025.11.01 17:29
1,5,Environment Title[],Latitude[deg],Longitude[deg],Time Zone[],Elevation[m]
2,8,Day of Simulation[],Month[],Day of Month[],DST Indicator[1=yes 0=no],Hour[],StartMinute[],EndMinute[],DayType
3,5,Cumulative Day of Simulation[],Month[],Day of Month[],DST Indicator[1=yes 0=no],DayType  ! When Daily Report Variables Requested
4,2,Cumulative Days of Simulation[],Month[]  ! When Monthly Report Variables Requested
5,1,Cumulative Days of Simulation[] ! When Run Period Report Variables Requested
6,1,Calendar Year of Simulation[] ! When Annual Report Variables Requested
7,1,Environment,Site Outdoor Air Drybulb Temperature [C] !TimeStep
8,1,Environment,Site Wind Speed [m/s] !TimeStep
9,1,Environment,Site Wind Direction [deg] !TimeStep
10,1,BLOCK `ROOM1` STOREY 0,Zone Mean Air Temperature [C] !TimeStep
11,1,BLOCK `ROOM2` STOREY 0,Zone Mean Air Temperature [C] !TimeStep
End of Data Dictionary
1,JULY_1,  37.62,-122.40,  -8.00,   2.00
2,1, 7, 1, 0, 1, 0.00,15.00,Saturday
7,13.150000000000002
8,6.45
9,285.0
10,19.39125500975641
11,19.25370698056092
2,1, 7, 1, 0, 1,15.00,30.00,Saturday
7,13.5
8,5.9
9,280.0
10,19.27747510995035
11,19.146690436245464
2,1, 7, 1, 0, 1,30.00,45.00,Saturday
7,13.849999999999998
8,5.35
9,275.0
10,19.162818975739803
11,19.04353139223383
2,1, 7, 1, 0, 1,45.00,60.00,Saturday
7,14.2
8,4.8
9,270.0
10,19.05192378901245
11,18.942260784903926
2,1, 7, 1, 0, 2, 0.00,15.00,Saturday
7,13.95
8,4.75
9,272.5
10,18.94592868067402
11,18.84281587366944
2,1, 7, 1, 0, 2,15.00,30.00,Saturday
7,13.7
8,4.699999999999999
9,275.0
10,18.843196632867183
11,18.74532966166807
2,1, 7, 1, 0, 2,30.00,45.00,Saturday
7,13.45
8,4.6499999999999995
9,277.5
10,18.742603721296174
11,18.649951527407843
2,1, 7, 1, 0, 2,45.00,60.00,Saturday
7,13.2
8,4.6
9,280.0
10,18.643813679910828
11,18.55661758014858
2,1, 7, 1, 0, 3, 0.00,15.00,Saturday
7,12.924999999999999
8,4.5249999999999995
9,280.0
10,18.546857774448533
11,18.465594927352516
2,1, 7, 1, 0, 3,15.00,30.00,Saturday
7,12.649999999999999
8,4.449999999999999
9,280.0
10,18.45163057333434
11,18.374977293073595
2,1, 7, 1, 0, 3,30.00,45.00,Saturday
7,12.375
8,4.375
9,280.0
10,18.35797320211984
11,18.284549171956275
2,1, 7, 1, 0, 3,45.00,60.00,Saturday
7,12.1
8,4.3
9,280.0
10,18.265345222255696
11,18.194740619326815
2,1, 7, 1, 0, 4, 0.00,15.00,Saturday
7,11.85
8,4.25
9,282.5
10,18.173286015803814
11,18.105590144428636
2,1, 7, 1, 0, 4,15.00,30.00,Saturday
7,11.6
8,4.199999999999999
9,285.0
10,18.081729933629752
11,18.016840894241366
2,1, 7, 1, 0, 4,30.00,45.00,Saturday
7,11.35
8,4.1499999999999995
9,287.5
10,17.990645705217663
11,17.928285836179118
2,1, 7, 1, 0, 4,45.00,60.00,Saturday
7,11.1
8,4.1
9,290.0
10,17.899918230785524
11,17.839817364087143
2,1, 7, 1, 0, 5, 0.00,15.00,Saturday
7,11.274999999999999
8,4.1
9,290.0
10,17.80942545158762
11,17.751342930489123
2,1, 7, 1, 0, 5,15.00,30.00,Saturday
7,11.45
8,4.1
9,290.0
10,17.719182308986923
11,17.66281491470853
2,1, 7, 1, 0, 5,30.00,45.00,Saturday
7,11.625000000000002
8,4.1
9,290.0
10,17.62941613354194
11,17.57433526388161
2,1, 7, 1, 0, 5,45.00,60.00,Saturday
7,11.8
8,4.1
9,290.0
10,17.539616556484855
11,17.48611252110233
2,1, 7, 1, 0, 6, 0.00,15.00,Saturday
7,12.000000000000002
8,4.1
9,292.5
10,17.450223062101834
11,17.39849337505869
2,1, 7, 1, 0, 6,15.00,30.00,Saturday
7,12.2
8,4.1
9,295.0
10,17.362101173401825
11,17.3121098611484
2,1, 7, 1, 0, 6,30.00,45.00,Saturday
7,12.399999999999999
8,4.1
9,297.5
10,17.276001160386446
11,17.227771506251035
2,1, 7, 1, 0, 6,45.00,60.00,Saturday
7,12.6
8,4.1
9,300.0
10,17.192599377053156
11,17.146412725737417
2,1, 7, 1, 0, 7, 0.00,15.00,Saturday
7,12.774999999999999
8,4.1
9,300.0
10,17.11299561886457
11,17.069416915717696
2,1, 7, 1, 0, 7,15.00,30.00,Saturday
7,12.95
8,4.1
9,300.0
10,17.038255508314432
11,16.998184912485264
2,1, 7, 1, 0, 7,30.00,45.00,Saturday
7,13.125000000000002
8,4.1
9,300.0
10,16.969496522857522
11,16.934305965664908
2,1, 7, 1, 0, 7,45.00,60.00,Saturday
7,13.3
8,4.1
9,300.0
10,16.907879558876907
11,16.879535277889648
2,1, 7, 1, 0, 8, 0.00,15.00,Saturday
7,13.725000000000001
8,4.324999999999999
9,300.0
10,16.854352770726507
11,16.835440727893033
2,1, 7, 1, 0, 8,15.00,30.00,Saturday
7,14.15
8,4.55
9,300.0
10,16.80964841220035
11,16.803276485970994
2,1, 7, 1, 0, 8,30.00,45.00,Saturday
7,14.575
8,4.775
9,300.0
10,16.774421850313505
11,16.784048298324187
2,1, 7, 1, 0, 8,45.00,60.00,Saturday
7,15.0
8,5.0
9,300.0
10,16.749160668943905
11,16.77842299900955
2,1, 7, 1, 0, 9, 0.00,15.00,Saturday
7,15.4
8,5.2
9,302.5
10,16.734170336696213
11,16.7865179420997
2,1, 7, 1, 0, 9,15.00,30.00,Saturday
7,15.8
8,5.4
9,305.0
10,16.728998244928015
11,16.80811258586661
2,1, 7, 1, 0, 9,30.00,45.00,Saturday
7,16.200000000000003
8,5.6
9,307.5
10,16.733213881060927
11,16.84183137294477
2,1, 7, 1, 0, 9,45.00,60.00,Saturday
7,16.6
8,5.8
9,310.0
10,16.74635067091715
11,16.886155205548626
2,1, 7, 1, 0,10, 0.00,15.00,Saturday
7,17.025000000000002
8,6.0249999999999995
9,310.0
10,16.75846612337745
11,16.9361235990819
2,1, 7, 1, 0,10,15.00,30.00,Saturday
7,17.450000000000003
8,6.25
9,310.0
10,16.777417634099372
11,16.99417586827913
2,1, 7, 1, 0,10,30.00,45.00,Saturday
7,17.875
8,6.4750000000000005
9,310.0
10,16.81281410385117
11,17.071123120684938
2,1, 7, 1, 0,10,45.00,60.00,Saturday
7,18.3
8,6.7
9,310.0
10,16.86270952717805
11,17.1647345823029
2,1, 7, 1, 0,11, 0.00,15.00,Saturday
7,18.25
8,6.825
9,307.5
10,16.923599544664047
11,17.27032577291707
2,1, 7, 1, 0,11,15.00,30.00,Saturday
7,18.200000000000003
8,6.95
9,305.0
10,16.9950356708613
11,17.38678416828818
2,1, 7, 1, 0,11,30.00,45.00,Saturday
7,18.150000000000002
8,7.075
9,302.5
10,17.077473925952038
11,17.51417251614587
2,1, 7, 1, 0,11,45.00,60.00,Saturday
7,18.1
8,7.2
9,300.0
10,17.170604759653315
11,17.651788389342293
2,1, 7, 1, 0,12, 0.00,15.00,Saturday
7,18.075000000000003
8,7.325
9,297.5
10,17.27362837816977
11,17.798624444612194
2,1, 7, 1, 0,12,15.00,30.00,Saturday
7,18.05
8,7.45
9,295.0
10,17.385792301181308
11,17.954397586266836
2,1, 7, 1, 0,12,30.00,45.00,Saturday
7,18.025
8,7.575
9,292.5
10,17.506488531128635
11,18.120538926801533
2,1, 7, 1, 0,12,45.00,60.00,Saturday
7,18.0
8,7.7
9,290.0
10,17.63520409311904
11,18.28835084526385
2,1, 7, 1, 0,13, 0.00,15.00,Saturday
7,17.95
8,7.825
9,287.5
10,17.77168567048692
11,18.455907261174424
2,1, 7, 1, 0,13,15.00,30.00,Saturday
7,17.9
8,7.949999999999999
9,285.0
10,17.91872298905091
11,18.623902139634392
2,1, 7, 1, 0,13,30.00,45.00,Saturday
7,17.85
8,8.075
9,282.5
10,18.068898415368476
11,18.791578796827253
2,1, 7, 1, 0,13,45.00,60.00,Saturday
7,17.8
8,8.2
9,280.0
10,18.219539919662715
11,18.957428759406646
2,1, 7, 1, 0,14, 0.00,15.00,Saturday
7,17.8
8,8.45
9,280.0
10,18.371285444956822
11,19.120324484276704
2,1, 7, 1, 0,14,15.00,30.00,Saturday
7,17.8
8,8.7
9,280.0
10,18.524160527514486
11,19.27953313554821
2,1, 7, 1, 0,14,30.00,45.00,Saturday
7,17.8
8,8.95
9,280.0
10,18.677361102908723
11,19.43443443949742
2,1, 7, 1, 0,14,45.00,60.00,Saturday
7,17.8
8,9.2
9,280.0
10,18.83016991324923
11,19.584441590947304
2,1, 7, 1, 0,15, 0.00,15.00,Saturday
7,17.8
8,9.475
9,280.0
10,18.982095060941063
11,19.729010411254798
2,1, 7, 1, 0,15,15.00,30.00,Saturday
7,17.8
8,9.75
9,280.0
10,19.132629833295784
11,19.867630026552455
2,1, 7, 1, 0,15,30.00,45.00,Saturday
7,17.8
8,10.025
9,280.0
10,19.281196643054596
11,19.99983088673348
2,1, 7, 1, 0,15,45.00,60.00,Saturday
7,17.8
8,10.3
9,280.0
10,19.427163277546722
11,20.12514730908611
2,1, 7, 1, 0,16, 0.00,15.00,Saturday
7,17.8
8,10.55
9,280.0
10,19.569810636807187
11,20.243041933951577
2,1, 7, 1, 0,16,15.00,30.00,Saturday
7,17.8
8,10.8
9,280.0
10,19.708381021637894
11,20.35285480417715
2,1, 7, 1, 0,16,30.00,45.00,Saturday
7,17.8
8,11.05
9,280.0
10,19.842109666741777
11,20.454158946313527
2,1, 7, 1, 0,16,45.00,60.00,Saturday
7,17.8
8,11.3
9,280.0
10,19.970134561210664
11,20.548762186866895
2,1, 7, 1, 0,17, 0.00,15.00,Saturday
7,17.475
8,11.525000000000002
9,280.0
10,20.091453680288094
11,20.63591075849017
2,1, 7, 1, 0,17,15.00,30.00,Saturday
7,17.15
8,11.75
9,280.0
10,20.205769389736446
11,20.71446604851338
2,1, 7, 1, 0,17,30.00,45.00,Saturday
7,16.825
8,11.974999999999998
9,280.0
10,20.31115289668294
11,20.78394121918853
2,1, 7, 1, 0,17,45.00,60.00,Saturday
7,16.5
8,12.2
9,280.0
10,20.405828543438822
11,20.844121955379975
2,1, 7, 1, 0,18, 0.00,15.00,Saturday
7,16.175
8,12.399999999999999
9,280.0
10,20.496262729835063
11,20.894750722147982
2,1, 7, 1, 0,18,15.00,30.00,Saturday
7,15.85
8,12.6
9,280.0
10,20.581214274935427
11,20.935616385054416
2,1, 7, 1, 0,18,30.00,45.00,Saturday
7,15.524999999999999
8,12.8
9,280.0
10,20.657434393469313
11,20.966589545366144
2,1, 7, 1, 0,18,45.00,60.00,Saturday
7,15.2
8,13.0
9,280.0
10,20.723952299658833
11,20.987757185917108
2,1, 7, 1, 0,19, 0.00,15.00,Saturday
7,14.874999999999998
8,13.225
9,280.0
10,20.78078629555481
11,20.999174760118795
2,1, 7, 1, 0,19,15.00,30.00,Saturday
7,14.55
8,13.45
9,280.0
10,20.82756463946518
11,21.000838543982262
2,1, 7, 1, 0,19,30.00,45.00,Saturday
7,14.225000000000001
8,13.675
9,280.0
10,20.863677082485186
11,20.99280615432794
2,1, 7, 1, 0,19,45.00,60.00,Saturday
7,13.9
8,13.9
9,280.0
10,20.888653880251965
11,20.975215781994162
2,1, 7, 1, 0,20, 0.00,15.00,Saturday
7,13.8
8,13.375
9,280.0
10,20.902191759602776
11,20.94821530979836
2,1, 7, 1, 0,20,15.00,30.00,Saturday
7,13.7
8,12.850000000000001
9,280.0
10,20.904153429478395
11,20.91190835903187
2,1, 7, 1, 0,20,30.00,45.00,Saturday
7,13.6
8,12.325000000000001
9,280.0
10,20.89465107876473
11,20.865988363786634
2,1, 7, 1, 0,20,45.00,60.00,Saturday
7,13.5
8,11.8
9,280.0
10,20.873855043164184
11,20.812067064888872
2,1, 7, 1, 0,21, 0.00,15.00,Saturday
7,13.425
8,11.3
9,280.0
10,20.84243113895143
11,20.755855289804156
2,1, 7, 1, 0,21,15.00,30.00,Saturday
7,13.35
8,10.8
9,280.0
10,20.803242191505824
11,20.697541971306777
2,1, 7, 1, 0,21,30.00,45.00,Saturday
7,13.274999999999999
8,10.3
9,280.0
10,20.75579270042639
11,20.63732691875059
2,1, 7, 1, 0,21,45.00,60.00,Saturday
7,13.2
8,9.8
9,280.0
10,20.691382183073628
11,20.56230487072627
2,1, 7, 1, 0,22, 0.00,15.00,Saturday
7,13.099999999999998
8,9.275
9,280.0
10,20.615270926123216
11,20.477390357575903
2,1, 7, 1, 0,22,15.00,30.00,Saturday
7,13.0
8,8.75
9,280.0
10,20.5328821863226
11,20.3886820806931
2,1, 7, 1, 0,22,30.00,45.00,Saturday
7,12.900000000000002
8,8.225000000000001
9,280.0
10,20.445501236130337
11,20.297351467913817
2,1, 7, 1, 0,22,45.00,60.00,Saturday
7,12.8
8,7.7
9,280.0
10,20.353077472149568
11,20.202733160566154
2,1, 7, 1, 0,23, 0.00,15.00,Saturday
7,12.8
8,7.625
9,280.0
10,20.25609860600928
11,20.104841448118577
2,1, 7, 1, 0,23,15.00,30.00,Saturday
7,12.8
8,7.550000000000001
9,280.0
10,20.155419852882623
11,20.00429115460907
2,1, 7, 1, 0,23,30.00,45.00,Saturday
7,12.8
8,7.4750000000000005
9,280.0
10,20.051749515361138
11,19.901612040717584
2,1, 7, 1, 0,23,45.00,60.00,Saturday
7,12.8
8,7.4
9,280.0
10,19.94559031462884
11,19.797112834410306
2,1, 7, 1, 0,24, 0.00,15.00,Saturday
7,12.8
8,7.300000000000001
9,282.5
10,19.837367920787468
11,19.691032945092125
2,1, 7, 1, 0,24,15.00,30.00,Saturday
7,12.8
8,7.2
9,285.0
10,19.72745992926252
11,19.583590811536165
2,1, 7, 1, 0,24,30.00,45.00,Saturday
7,12.8
8,7.1
9,287.5
10,19.616210092128952
11,19.47494819904349
2,1, 7, 1, 0,24,45.00,60.00,Saturday
7,12.8
8,7.0
9,290.0
10,19.50393463917116
11,19.365117202618944
End of Data
 Number of Records Written=         480
