Program Version,EnergyPlus, Version 22.2.0-c249759bad, YMD=2025.11.01 17:29
1,5,Environment Title[],Latitude[deg],Longitude[deg],Time Zone[],Elevation[m]
2,8,Day of Simulation[],Month[],Day of Month[],DST Indicator[1=yes 0=no],Hour[],StartMinute[],EndMinute[],DayType
3,5,Cumulative Day of Simulation[],Month[],Day of Month[],DST Indicator[1=yes 0=no],DayType  ! When Daily Report Variables Requested
4,2,Cumulative Days of Simulation[],Month[]  ! When Monthly Report Variables Requested
5,1,Cumulative Days of Simulation[] ! When Run Period Report Variables Requested
6,1,Calendar Year of Simulation[] ! When Annual Report Variables Requested
7,1,Environment,Site Outdoor Air Drybulb Temperature [C] !TimeStep
8,1,Environment,Site Wind Speed [m/s] !TimeStep
9,1,Environment,Site Wind Direction [deg] !TimeStep
10,1,BLOCK `ROOM1` STOREY 0,Zone Mean Air Temperature [C] !TimeStep
11,1,BLOCK `ROOM2` STOREY 0,Zone Mean Air Temperature [C] !TimeStep
12,1,BLOCK `ROOM1` STOREY 0,AFN Node Total Pressure [Pa] !TimeStep
13,1,BLOCK `ROOM2` STOREY 0,AFN Node Total Pressure [Pa] !TimeStep
14,1,AFN_PRESSURE_COEFFICIENT_VALUES_NORTH_ROOM1,AFN Node Total Pressure [Pa] !TimeStep
15,1,AFN_PRESSURE_COEFFICIENT_VALUES_NORTH_ROOM1,AFN Node Wind Pressure [Pa] !TimeStep
16,1,AFN_PRESSURE_COEFFICIENT_VALUES_SOUTH_ROOM1,AFN Node Total Pressure [Pa] !TimeStep
17,1,AFN_PRESSURE_COEFFICIENT_VALUES_SOUTH_ROOM1,AFN Node Wind Pressure [Pa] !TimeStep
18,1,AFN_PRESSURE_COEFFICIENT_VALUES_NORTH_ROOM2,AFN Node Total Pressure [Pa] !TimeStep
19,1,AFN_PRESSURE_COEFFICIENT_VALUES_NORTH_ROOM2,AFN Node Wind Pressure [Pa] !TimeStep
20,1,AFN_PRESSURE_COEFFICIENT_VALUES_SOUTH_ROOM2,AFN Node Total Pressure [Pa] !TimeStep
21,1,AFN_PRESSURE_COEFFICIENT_VALUES_SOUTH_ROOM2,AFN Node Wind Pressure [Pa] !TimeStep
22,1,DOOR__BLOCK `ROOM1` STOREY 0 WALL 0001,AFN Linkage Node 1 to Node 2 Volume Flow Rate [m3/s] !TimeStep
23,1,DOOR__BLOCK `ROOM1` STOREY 0 WALL 0001,AFN Linkage Node 2 to Node 1 Volume Flow Rate [m3/s] !TimeStep
24,1,DOOR__BLOCK `ROOM1` STOREY 0 WALL 0003,AFN Linkage Node 1 to Node 2 Volume Flow Rate [m3/s] !TimeStep
25,1,DOOR__BLOCK `ROOM1` STOREY 0 WALL 0003,AFN Linkage Node 2 to Node 1 Volume Flow Rate [m3/s] !TimeStep
26,1,DOOR__BLOCK `ROOM2` STOREY 0 WALL 0001,AFN Linkage Node 1 to Node 2 Volume Flow Rate [m3/s] !TimeStep
27,1,DOOR__BLOCK `ROOM2` STOREY 0 WALL 0001,AFN Linkage Node 2 to Node 1 Volume Flow Rate [m3/s] !TimeStep
28,1,DOOR__BLOCK `ROOM2` STOREY 0 WALL 0003,AFN Linkage Node 1 to Node 2 Volume Flow Rate [m3/s] !TimeStep
29,1,DOOR__BLOCK `ROOM2` STOREY 0 WALL 0003,AFN Linkage Node 2 to Node 1 Volume Flow Rate [m3/s] !TimeStep
30,1,BLOCK `ROOM1` STOREY 0,AFN Zone Ventilation Sensible Heat Gain Rate [W] !TimeStep
31,1,BLOCK `ROOM1` STOREY 0,AFN Zone Mixing Sensible Heat Gain Rate [W] !TimeStep
32,1,BLOCK `ROOM1` STOREY 0,AFN Zone Ventilation Sensible Heat Loss Rate [W] !TimeStep
33,1,BLOCK `ROOM1` STOREY 0,AFN Zone Mixing Sensible Heat Loss Rate [W] !TimeStep
34,1,BLOCK `ROOM2` STOREY 0,AFN Zone Ventilation Sensible Heat Gain Rate [W] !TimeStep
35,1,BLOCK `ROOM2` STOREY 0,AFN Zone Mixing Sensible Heat Gain Rate [W] !TimeStep
36,1,BLOCK `ROOM2` STOREY 0,AFN Zone Ventilation Sensible Heat Loss Rate [W] !TimeStep
37,1,BLOCK `ROOM2` STOREY 0,AFN Zone Mixing Sensible Heat Loss Rate [W] !TimeStep
38,1,BLOCK `ROOM1` STOREY 0,AFN Zone Ventilation Volume [m3] !TimeStep
39,1,BLOCK `ROOM1` STOREY 0,AFN Zone Ventilation Air Change Rate [ach] !TimeStep
40,1,BLOCK `ROOM1` STOREY 0,AFN Zone Mixing Volume [m3] !TimeStep
41,1,BLOCK `ROOM2` STOREY 0,AFN Zone Ventilation Volume [m3] !TimeStep
42,1,BLOCK `ROOM2` STOREY 0,AFN Zone Ventilation Air Change Rate [ach] !TimeStep
43,1,BLOCK `ROOM2` STOREY 0,AFN Zone Mixing Volume [m3] !TimeStep
End of Data Dictionary
1,JULY_1,  37.62,-122.40,  -8.00,   2.00
2,1, 7, 1, 0, 1, 0.00,15.00,Saturday
7,13.150000000000002
8,6.45
9,285.0
10,13.486964621198462
11,13.466630069161386
12,-2.051976766783689
13,-2.0509759322914203
14,-1.2975015304897581
15,-1.2975015304897581
16,-2.7946186810548634
17,-2.7946186810548634
18,-1.2975015304897581
19,-1.2975015304897581
20,-2.794618681054864
21,-2.794618681054864
22,0.0
23,0.06914164154894423
24,0.06914597139443483
25,0.0
26,0.0
27,0.06914280890633759
28,0.06914717883071365
29,0.0
30,0.0
31,0.0
32,28.95172302938867
33,0.0
34,0.0
35,0.0
36,27.20503329642391
37,0.0
38,62.3258053212126
39,83.1010737616168
40,0.0
41,62.322436017162936
42,83.09658135621724
43,0.0
2,1, 7, 1, 0, 1,15.00,30.00,Saturday
7,13.5
8,5.9
9,280.0
10,13.79883127570695
11,13.77650642031459
12,-1.9329981986869567
13,-1.9318566070231933
14,-1.5016886976577148
15,-1.5016886976577148
16,-2.335960196356444
17,-2.335960196356444
18,-1.5016886976577148
19,-1.5016886976577148
20,-2.335960196356445
21,-2.335960196356445
22,0.0
23,0.05162171998315687
24,0.05162172334531881
25,0.0
26,0.0
27,0.05162272538541962
28,0.0516227287943052
29,0.0
30,0.0
31,0.0
32,19.156561435294492
33,0.0
34,0.0
35,0.0
36,17.725776127888217
37,0.0
38,46.52724591748614
39,62.03632788998152
40,0.0
41,46.524532185739204
42,62.0327095809856
43,0.0
2,1, 7, 1, 0, 1,30.00,45.00,Saturday
7,13.849999999999998
8,5.35
9,275.0
10,14.120413389801904
11,14.093934687282083
12,-1.759583851374527
13,-1.7582219188644592
14,-1.5761396178668703
15,-1.5761396178668703
16,-1.9187786652292327
17,-1.9187786652292327
18,-1.5761396178668703
19,-1.5761396178668703
20,-1.9187786652292336
21,-1.9187786652292336
22,0.0
23,0.033090938589625585
24,0.033093702539806355
25,0.0
26,0.0
27,0.03309093377605657
28,0.03309524726183279
29,0.0
30,0.0
31,0.0
32,11.104481471747022
33,0.0
34,0.0
35,0.0
36,10.017136328301973
37,0.0
38,29.822627502239925
39,39.7635033363199
40,0.0
41,29.819874339852646
42,39.759832453136866
43,0.0
2,1, 7, 1, 0, 1,45.00,60.00,Saturday
7,14.2
8,4.8
9,270.0
10,14.601482944518429
11,14.548922819569182
12,-1.5582384450803857
13,-1.5555026561544323
14,-1.5429549534374045
15,-1.5429549534374045
16,-1.5429549534374039
17,-1.5429549534374039
18,-1.5429549534374045
19,-1.5429549534374045
20,-1.5429549534374045
21,-1.5429549534374045
22,0.0010237329001492553
23,0.0010238944028083167
24,0.0010237329001485478
25,0.0010238944028090242
26,0.0009232852233891254
27,0.0009233948392642808
28,0.0009232852233891254
29,0.0009233948392642808
30,0.0
31,0.0
32,0.9767517879093385
33,0.0
34,0.0
35,0.0
36,0.7564391163326578
37,0.0
38,1.846431333551453
39,2.461908444735271
40,0.0
41,1.664898481739673
42,2.219864642319564
43,0.0
2,1, 7, 1, 0, 2, 0.00,15.00,Saturday
7,13.95
8,4.75
9,272.5
10,14.315272667838425
11,14.288730464272586
12,-1.4845016472030808
13,-1.481406879306738
14,-1.3774768121489434
15,-1.3774768121489434
16,-1.5125235584380545
17,-1.5125235584380545
18,-1.3774768121489434
19,-1.3774768121489434
20,-1.5125235584380552
21,-1.5125235584380552
22,0.0
23,0.020757985526367748
24,0.02075798553794758
25,0.0
26,0.0
27,0.020759512207185693
28,0.020759512216202012
29,0.0
30,0.0
31,0.0
32,9.410994634107686
33,0.0
34,0.0
35,0.0
36,8.72779518911777
37,0.0
38,18.70581031108323
39,24.94108041477764
40,0.0
41,18.705464042792947
42,24.94061872372393
43,0.0
2,1, 7, 1, 0, 2,15.00,30.00,Saturday
7,13.7
8,4.699999999999999
9,275.0
10,14.025785342025916
11,14.001174426809246
12,-1.3839880015904023
13,-1.38258991364485
14,-1.2176551189753566
15,-1.2176551189753566
16,-1.4823627535352166
17,-1.4823627535352166
18,-1.2176551189753566
19,-1.2176551189753566
20,-1.4823627535352166
21,-1.4823627535352166
22,0.0
23,0.029053219063298243
24,0.02905321906864955
25,0.0
26,0.0
27,0.029053968447920075
28,0.029053968452401352
29,0.0
30,0.0
31,0.0
32,11.757839776246435
33,0.0
34,0.0
35,0.0
36,10.869893568822157
37,0.0
38,26.177268729596474
39,34.9030249727953
40,0.0
41,26.17569976281539
42,34.90093301708719
43,0.0
2,1, 7, 1, 0, 2,30.00,45.00,Saturday
7,13.45
8,4.6499999999999995
9,277.5
10,13.823732038127803
11,13.798748627131825
12,-1.2903206741489492
13,-1.2890530132303002
14,-1.063418130500371
15,-1.063418130500371
16,-1.452473544098067
17,-1.452473544098067
18,-1.063418130500371
19,-1.063418130500371
20,-1.4524735440980674
21,-1.4524735440980674
22,0.0
23,0.035205741816016205
24,0.03520574183543383
25,0.0
26,0.0
27,0.035206526586356986
28,0.03520652660780478
29,0.0
30,0.0
31,0.0
32,16.35854166139634
33,0.0
34,0.0
35,0.0
36,15.265338624191955
37,0.0
38,31.726152330707446
39,42.30153644094326
40,0.0
41,31.724096805656867
42,42.298795740875825
43,0.0
2,1, 7, 1, 0, 2,45.00,60.00,Saturday
7,13.2
8,4.6
9,280.0
10,13.61170083258918
11,13.589234556418635
12,-1.2034058748361989
13,-1.2021188176716164
14,-0.914693744298069
15,-0.914693744298069
16,-1.4228569355747733
17,-1.4228569355747733
18,-0.914693744298069
19,-0.914693744298069
20,-1.4228569355747738
21,-1.4228569355747738
22,0.0
23,0.04021358004645996
24,0.040213581793263425
25,0.0
26,0.0
27,0.040214477798427156
28,0.04021447958807451
29,0.0
30,0.0
31,0.0
32,20.601302449374185
33,0.0
34,0.0
35,0.0
36,19.47753611575134
37,0.0
38,36.24389234025059
39,48.32518978700079
40,0.0
41,36.241862077681894
42,48.32248277024252
43,0.0
2,1, 7, 1, 0, 3, 0.00,15.00,Saturday
7,12.924999999999999
8,4.5249999999999995
9,280.0
10,13.409578316011329
11,13.387559749065813
12,-1.1700886547980631
13,-1.168926974683413
14,-0.8858862936817159
15,-0.8858862936817159
16,-1.3780453457271127
17,-1.3780453457271127
18,-0.8858862936817159
19,-0.8858862936817159
20,-1.3780453457271131
21,-1.3780453457271131
22,0.0
23,0.03956039813888063
24,0.03956039972665106
25,0.0
26,0.0
27,0.0395611982573773
28,0.03956119988218479
29,0.0
30,0.0
31,0.0
32,23.870678135483832
33,0.0
34,0.0
35,0.0
36,22.786488463959973
37,0.0
38,35.66428898723519
39,47.55238531631358
40,0.0
41,35.66226998302292
42,47.54969331069722
43,0.0
2,1, 7, 1, 0, 3,15.00,30.00,Saturday
7,12.649999999999999
8,4.449999999999999
9,280.0
10,13.210007334254028
11,13.188180302863847
12,-1.137715515417412
13,-1.136575395046282
14,-0.8575139685220894
15,-0.8575139685220894
16,-1.3339106177010271
17,-1.3339106177010271
18,-0.8575139685220894
19,-0.8575139685220894
20,-1.333910617701028
21,-1.333910617701028
22,0.0
23,0.03890685775466916
24,0.03890685917776226
25,0.0
26,0.0
27,0.0389076335866544
28,0.0389076350443053
29,0.0
30,0.0
31,0.0
32,27.149411501155136
33,0.0
34,0.0
35,0.0
36,26.091747322569468
37,0.0
38,35.08441328313091
39,46.77921771084121
40,0.0
41,35.082438601837964
42,46.77658480245062
43,0.0
2,1, 7, 1, 0, 3,30.00,45.00,Saturday
7,12.375
8,4.375
9,280.0
10,13.008877660867636
11,12.987532386528466
12,-1.1059853725628297
13,-1.1048536803211373
14,-0.8295780710569012
15,-0.8295780710569012
16,-1.2904547771996233
17,-1.2904547771996233
18,-0.8295780710569012
19,-0.8295780710569012
20,-1.2904547771996238
21,-1.2904547771996238
22,0.0
23,0.038253169720050266
24,0.03825317098366234
25,0.0
26,0.0
27,0.03825393086718967
28,0.03825393216323365
29,0.0
30,0.0
31,0.0
32,30.235303496231875
33,0.0
34,0.0
35,0.0
36,29.21773751834648
37,0.0
38,34.50391983693545
39,46.00522644924727
40,0.0
41,34.50203258829626
42,46.00271011772835
43,0.0
2,1, 7, 1, 0, 3,45.00,60.00,Saturday
7,12.1
8,4.3
9,280.0
10,12.806795859252672
11,12.785988298454567
12,-1.0747533754952912
13,-1.0736448663969216
14,-0.8020799028099065
15,-0.8020799028099065
16,-1.2476798488154095
17,-1.2476798488154095
18,-0.8020799028099065
19,-0.8020799028099065
20,-1.24767984881541
21,-1.24767984881541
22,0.0
23,0.037599430626196764
24,0.037599431740269994
25,0.0
26,0.0
27,0.03760016776308143
28,0.03760016890705087
29,0.0
30,0.0
31,0.0
32,33.16027494056664
33,0.0
34,0.0
35,0.0
36,32.18469130927178
37,0.0
38,33.92297615598087
39,45.23063487464116
40,0.0
41,33.92117277072033
42,45.228230360960445
43,0.0
2,1, 7, 1, 0, 4, 0.00,15.00,Saturday
7,11.85
8,4.25
9,282.5
10,12.564266790525735
11,12.545375734407052
12,-0.9998645023112355
13,-0.998783980830876
14,-0.6753974618729282
15,-0.6753974618729282
16,-1.2200728343510958
17,-1.2200728343510958
18,-0.6753974618729282
19,-0.6753974618729282
20,-1.2200728343510963
21,-1.2200728343510963
22,0.0
23,0.04154725851181201
24,0.04154729486943355
25,0.0
26,0.0
27,0.04154804169087654
28,0.04154807867003317
29,0.0
30,0.0
31,0.0
32,37.06102431700196
33,0.0
34,0.0
35,0.0
36,36.081507837232145
37,0.0
38,37.48586585153276
39,49.98115446871034
40,0.0
41,37.484093906775435
42,49.97879187570058
43,0.0
2,1, 7, 1, 0, 4,15.00,30.00,Saturday
7,11.6
8,4.199999999999999
9,285.0
10,12.321236638020999
11,12.304049132771143
12,-0.9257186228881504
13,-0.9247372405972863
14,-0.5537747761147058
15,-0.5537747761147058
16,-1.192745671631674
17,-1.192745671631674
18,-0.5537747761147058
19,-0.5537747761147058
20,-1.1927456716316742
21,-1.1927456716316742
22,0.0
23,0.04497669379100533
24,0.04497777323758798
25,0.0
26,0.0
27,0.04497744793076268
28,0.0449785467314042
29,0.0
30,0.0
31,0.0
32,40.546376572439314
33,0.0
34,0.0
35,0.0
36,39.58079555215202
37,0.0
38,40.58114291778281
39,54.10819055704375
40,0.0
41,40.57938002336341
42,54.10584003115122
43,0.0
2,1, 7, 1, 0, 4,30.00,45.00,Saturday
7,11.35
8,4.1499999999999995
9,287.5
10,12.081734207087306
11,12.065939743991317
12,-0.8542412238703372
13,-0.8533481674957171
14,-0.4371372621322759
15,-0.4371372621322759
16,-1.1656993656860686
17,-1.1656993656860686
18,-0.4371372621322759
19,-0.4371372621322759
20,-1.1656993656860692
21,-1.1656993656860692
22,0.0
23,0.048002443990031944
24,0.048002444206854844
25,0.0
26,0.0
27,0.04800318217763979
28,0.048003182408500995
29,0.0
30,0.0
31,0.0
32,43.94161621992091
33,0.0
34,0.0
35,0.0
36,42.99379877453375
37,0.0
38,43.31288263982283
39,57.75051018643044
40,0.0
41,43.31115025746307
42,57.74820034328409
43,0.0
2,1, 7, 1, 0, 4,45.00,60.00,Saturday
7,11.1
8,4.1
9,290.0
10,11.842016405200397
11,11.827466565441995
12,-0.7855268960500096
13,-0.7847065303132261
14,-0.32540997761311785
15,-0.32540997761311785
16,-1.1389349216459117
17,-1.1389349216459117
18,-0.32540997761311785
19,-0.32540997761311785
20,-1.1389349216459124
21,-1.1389349216459124
22,0.0
23,0.05069770194264096
24,0.050698522008685375
25,0.0
26,0.0
27,0.05069845580197517
28,0.05069919723390193
29,0.0
30,0.0
31,0.0
32,47.10143100138795
33,0.0
34,0.0
35,0.0
36,46.17852853885031
37,0.0
38,45.74658759615103
39,60.99545012820138
40,0.0
41,45.74493227361458
42,60.99324303148611
43,0.0
2,1, 7, 1, 0, 5, 0.00,15.00,Saturday
7,11.274999999999999
8,4.1
9,290.0
10,11.914720121738872
11,11.901252026419904
12,-0.761140730379848
13,-0.7603830637318598
14,-0.3252037463463598
15,-0.3252037463463598
16,-1.1382131122122585
17,-1.1382131122122585
18,-0.3252037463463598
19,-0.3252037463463598
20,-1.1382131122122592
21,-1.1382131122122592
22,0.0
23,0.050718817127973596
24,0.05071883943095151
25,0.0
26,0.0
27,0.05071947238843859
28,0.05071949165488756
29,0.0
30,0.0
31,0.0
32,40.59993652981301
33,0.0
34,0.0
35,0.0
36,39.74569526292306
37,0.0
38,45.749263313860155
39,60.99901775181354
40,0.0
41,45.74769288570298
42,60.99692384760397
43,0.0
2,1, 7, 1, 0, 5,15.00,30.00,Saturday
7,11.45
8,4.1
9,290.0
10,12.015142380137275
11,12.002790774317148
12,-0.7550898956524014
13,-0.7543888961288335
14,-0.32499813040345477
15,-0.32499813040345477
16,-1.137493456412091
17,-1.137493456412091
18,-0.32499813040345477
19,-0.32499813040345477
20,-1.1374934564120915
21,-1.1374934564120915
22,0.0
23,0.05072362942354174
24,0.05072363649296353
25,0.0
26,0.0
27,0.05072423385541843
28,0.05072423989271543
29,0.0
30,0.0
31,0.0
32,35.848288270366254
33,0.0
34,0.0
35,0.0
36,35.06521518401559
37,0.0
38,45.74152565191795
39,60.988700869223926
40,0.0
41,45.740089450423724
42,60.9867859338983
43,0.0
2,1, 7, 1, 0, 5,30.00,45.00,Saturday
7,11.625000000000002
8,4.1
9,290.0
10,12.105966432410515
11,12.094572225058815
12,-0.7508533246483817
13,-0.7502109043052614
14,-0.32479313693587475
15,-0.32479313693587475
16,-1.1367759792755612
17,-1.1367759792755612
18,-0.32479313693587475
19,-0.32479313693587475
20,-1.1367759792755616
21,-1.1367759792755616
22,0.0
23,0.05072687166678211
24,0.0507268745729117
25,0.0
26,0.0
27,0.05072742487642985
28,0.050727427345358705
29,0.0
30,0.0
31,0.0
32,30.492087864329484
33,0.0
34,0.0
35,0.0
36,29.770047824559576
37,0.0
38,45.73090037078606
39,60.974533827714744
40,0.0
41,45.72957241014133
42,60.97276321352177
43,0.0
2,1, 7, 1, 0, 5,45.00,60.00,Saturday
7,11.8
8,4.1
9,290.0
10,12.206006266710542
11,12.195503986218569
12,-0.746009552850959
13,-0.7454173131726879
14,-0.3245887731886718
15,-0.3245887731886718
16,-1.1360607061603507
17,-1.1360607061603507
18,-0.3245887731886718
19,-0.3245887731886718
20,-1.1360607061603512
21,-1.1360607061603512
22,0.0
23,0.05073063564433806
24,0.05073063653004911
25,0.0
26,0.0
27,0.050731144966569004
28,0.05073114570880463
29,0.0
30,0.0
31,0.0
32,25.725956692701928
33,0.0
34,0.0
35,0.0
36,25.060747596783152
37,0.0
38,45.722242330460894
39,60.96298977394786
40,0.0
41,45.721018585489794
42,60.96135811398639
43,0.0
2,1, 7, 1, 0, 6, 0.00,15.00,Saturday
7,12.000000000000002
8,4.1
9,292.5
10,12.318316203968477
11,12.309069728170131
12,-0.6887788877050143
13,-0.6882343280933123
14,-0.22298362871341687
15,-0.22298362871341687
16,-1.1351893825410306
17,-1.1351893825410306
18,-0.22298362871341687
19,-0.22298362871341687
20,-1.1351893825410313
21,-1.1351893825410313
22,0.0
23,0.053813420184146185
24,0.05381342018044005
25,0.0
26,0.0
27,0.05381391661773479
28,0.053813916614188516
29,0.0
30,0.0
31,0.0
32,21.38047597956702
33,0.0
34,0.0
35,0.0
36,20.75960562701733
37,0.0
38,48.485773566582324
39,64.64769808877644
40,0.0
41,48.484650357759584
42,64.64620047701278
43,0.0
2,1, 7, 1, 0, 6,15.00,30.00,Saturday
7,12.2
8,4.1
9,295.0
10,12.443981897330282
11,12.435925430075127
12,-0.632982518414408
13,-0.6325042980511327
14,-0.12153424154160605
15,-0.12153424154160605
16,-1.134319587721656
17,-1.134319587721656
18,-0.12153424154160605
19,-0.12153424154160605
20,-1.134319587721657
21,-1.134319587721657
22,0.0
23,0.05672878246639764
24,0.056728781599863186
25,0.0
26,0.0
27,0.056729242319982595
28,0.05672924151728181
29,0.0
30,0.0
31,0.0
32,17.263499012043397
33,0.0
34,0.0
35,0.0
36,16.693580504221725
37,0.0
38,51.0991482384005
39,68.13219765120067
40,0.0
41,51.09812096400534
42,68.13082795200712
43,0.0
2,1, 7, 1, 0, 6,30.00,45.00,Saturday
7,12.399999999999999
8,4.1
9,297.5
10,12.540261323300973
11,12.426026512175273
12,-1.1007195568940915
13,-0.5777188344383619
14,-0.020240202446821662
15,-0.020240202446821662
16,-1.13345133702201
17,-1.13345133702201
18,-0.020240202446821662
19,-0.020240202446821662
20,-1.1334513370220105
21,-1.1334513370220105
22,0.0
23,0.08285466950979734
24,0.08285466717753223
25,0.0
26,0.0
27,0.5098754542422764
28,0.5098754542422763
29,0.0
30,0.0
31,0.0
32,14.48513687544068
33,0.0
34,0.0
35,0.0
36,16.54046670105976
37,0.0
38,74.60522152453824
39,99.47362869938432
40,0.0
41,458.92584610625215
42,611.9011281416696
43,0.0
2,1, 7, 1, 0, 6,45.00,60.00,Saturday
7,12.6
8,4.1
9,300.0
10,12.723436369038465
11,12.70709546702703
12,-0.5217727436808796
13,-0.5159228679286243
14,0.08089890328961169
15,0.08089890328961169
16,-1.1325846460545632
17,-1.1325846460545632
18,0.08089890328961169
19,0.08089890328961169
20,-1.1325846460545639
21,-1.1325846460545639
22,0.0
23,0.06215292284353068
24,0.0621529254704452
25,0.0
26,0.0
27,0.062159098554787476
28,0.062159099965340935
29,0.0
30,0.0
31,0.0
32,9.555919779500343
33,0.0
34,0.0
35,0.0
36,8.291700310599472
37,0.0
38,55.96134481284636
39,74.61512641712848
40,0.0
41,55.96370365460576
42,74.61827153947435
43,0.0
2,1, 7, 1, 0, 7, 0.00,15.00,Saturday
7,12.774999999999999
8,4.1
9,300.0
10,12.867399161367674
11,12.866687887122698
12,-0.5226543195467518
13,-0.521819038584739
14,0.08084853971133447
15,0.08084853971133447
16,-1.131879555958682
17,-1.131879555958682
18,0.08084853971133447
19,0.08084853971133447
20,-1.1318795559586827
21,-1.1318795559586827
22,0.0
23,0.06215164799531555
24,0.06215165097064345
25,0.0
26,0.0
27,0.06215253112411369
28,0.06215253385394764
29,0.0
30,0.0
31,0.0
32,7.14863742912063
33,0.0
34,0.0
35,0.0
36,7.09370913486271
37,0.0
38,55.95407154141917
39,74.60542872189222
40,0.0
41,55.9547283453497
42,74.60630446046626
43,0.0
2,1, 7, 1, 0, 7,15.00,30.00,Saturday
7,12.95
8,4.1
9,300.0
10,13.007782949089533
11,13.002626672262771
12,-0.5208265878327123
13,-0.5207885118600488
14,0.08079834410090397
15,0.08079834410090397
16,-1.131176817412655
17,-1.131176817412655
18,0.08079834410090397
19,0.08079834410090397
20,-1.1311768174126555
21,-1.1311768174126555
22,0.0
23,0.062153238809860914
24,0.062153241356846335
25,0.0
26,0.0
27,0.06215327908136755
28,0.06215328161829107
29,0.0
30,0.0
31,0.0
32,4.467874137133704
33,0.0
34,0.0
35,0.0
36,4.06918483705967
37,0.0
38,55.9487432373911
39,74.59832431652147
40,0.0
41,55.94777138282645
42,74.59702851043527
43,0.0
2,1, 7, 1, 0, 7,30.00,45.00,Saturday
7,13.125000000000002
8,4.1
9,300.0
10,13.157351656575763
11,13.153953294045236
12,-0.5187191981113197
13,-0.518454711432292
14,0.08074831844008691
15,0.08074831844008691
16,-1.1304764581612161
17,-1.1304764581612161
18,0.08074831844008691
19,0.08074831844008691
20,-1.1304764581612168
21,-1.1304764581612168
22,0.0
23,0.06215512804007744
24,0.06215513015269813
25,0.0
26,0.0
27,0.06215540782525043
28,0.06215540987964545
29,0.0
30,0.0
31,0.0
32,2.500033895107529
33,0.0
34,0.0
35,0.0
36,2.237429237943181
37,0.0
38,55.94546582505385
39,74.59395443340513
40,0.0
41,55.94505350232075
42,74.593404669761
43,0.0
2,1, 7, 1, 0, 7,45.00,60.00,Saturday
7,13.3
8,4.1
9,300.0
10,13.317415261397047
11,13.314871210651281
12,-0.5171237422392644
13,-0.5169498284854299
14,0.08069846473557439
15,0.08069846473557439
16,-1.1297785062980412
17,-1.1297785062980412
18,0.08069846473557439
19,0.08069846473557439
20,-1.1297785062980419
21,-1.1297785062980419
22,0.0
23,0.062156478277518606
24,0.06215648012251582
25,0.0
26,0.0
27,0.062156662311232576
28,0.0621566641222245
29,0.0
30,0.0
31,0.0
32,1.345004767538778
33,0.0
34,0.0
35,0.0
36,1.148527604080387
37,0.0
38,55.943757844461615
39,74.59167712594882
40,0.0
41,55.94342665558774
42,74.59123554078366
43,0.0
2,1, 7, 1, 0, 8, 0.00,15.00,Saturday
7,13.725000000000001
8,4.324999999999999
9,300.0
10,13.67729056369232
11,13.675267591782287
12,-0.5699461958572762
13,-0.5698296555163264
14,0.08966372731651817
15,0.08966372731651817
16,-1.2552921824312542
17,-1.2552921824312542
18,0.08966372731651817
19,0.08966372731651817
20,-1.2552921824312546
21,-1.2552921824312546
22,0.0
23,0.06557363805592456
24,0.06557363965031543
25,0.0
26,0.0
27,0.06557376850095314
28,0.06557377007818317
29,0.0
30,3.8819718234292884
31,0.0
32,0.0
33,0.0
34,4.0465633269927865
35,0.0
36,0.0
37,0.0
38,59.02895450065034
39,78.70527266753379
40,0.0
41,59.02865560177107
42,78.70487413569475
43,0.0
2,1, 7, 1, 0, 8,15.00,30.00,Saturday
7,14.15
8,4.55
9,300.0
10,14.025469520023812
11,14.026543994415881
12,-0.6370657281692205
13,-0.6371104131746439
14,0.09908748834578522
15,0.09908748834578522
16,-1.3872248368409925
17,-1.3872248368409925
18,0.09908748834578522
19,0.09908748834578522
20,-1.3872248368409932
21,-1.3872248368409932
22,0.0
23,0.06897811493353803
24,0.06897811734202992
25,0.0
26,0.0
27,0.06897806202400661
28,0.06897806444223506
29,0.0
30,10.64163411754354
31,0.0
32,0.0
33,0.0
34,10.54980688415792
35,0.0
36,0.0
37,0.0
38,62.07707405545745
39,82.76943207394328
40,0.0
41,62.07725867510072
42,82.76967823346763
43,0.0
2,1, 7, 1, 0, 8,30.00,45.00,Saturday
7,14.575
8,4.775
9,300.0
10,14.385068964307287
11,14.38972610641341
12,-0.6979234863974249
13,-0.6981506244470623
14,0.10896797304684658
15,0.10896797304684658
16,-1.5255516226558516
17,-1.5255516226558516
18,0.10896797304684658
19,0.10896797304684658
20,-1.525551622655852
21,-1.525551622655852
22,0.0
23,0.07239335682623847
24,0.07239335881788805
25,0.0
26,0.0
27,0.07239307356319988
28,0.07239307559408859
29,0.0
30,17.008848314998573
31,0.0
32,0.0
33,0.0
34,16.59172183029552
35,0.0
36,0.0
37,0.0
38,65.13586481933893
39,86.84781975911858
40,0.0
41,65.13666491092386
42,86.84888654789847
43,0.0
2,1, 7, 1, 0, 8,45.00,60.00,Saturday
7,15.0
8,5.0
9,300.0
10,14.749870432995785
11,14.75887022487269
12,-0.7621852533055393
13,-0.7626264377367632
14,0.11930345943739676
15,0.11930345943739676
16,-1.670248432123554
17,-1.670248432123554
18,0.11930345943739676
19,0.11930345943739676
20,-1.6702484321235544
21,-1.6702484321235544
22,0.0
23,0.07580844934482725
24,0.07580845109107895
25,0.0
26,0.0
27,0.07580787098266395
28,0.07580787279380866
29,0.0
30,23.42188467098424
31,0.0
32,0.0
33,0.0
34,22.578978616060915
35,0.0
36,0.0
37,0.0
38,68.19438359701587
39,90.92584479602118
40,0.0
41,68.19599503706493
42,90.92799338275324
43,0.0
2,1, 7, 1, 0, 9, 0.00,15.00,Saturday
7,15.4
8,5.2
9,302.5
10,15.106388233034622
11,15.12013809387793
12,-0.7443877659343103
13,-0.7450625654306369
14,0.2469779865651958
15,0.2469779865651958
16,-1.7664295126075955
17,-1.7664295126075955
18,0.2469779865651958
19,0.2469779865651958
20,-1.7664295126075964
21,-1.7664295126075964
22,0.0
23,0.08046953823532896
24,0.08046953823178253
25,0.0
26,0.0
27,0.08046859439485267
28,0.08046859439186767
29,0.0
30,29.143566971288337
31,0.0
32,0.0
33,0.0
34,27.77844316348416
35,0.0
36,0.0
37,0.0
38,72.37653596543791
39,96.50204795391721
40,0.0
41,72.37913933432947
42,96.50551911243929
43,0.0
2,1, 7, 1, 0, 9,15.00,30.00,Saturday
7,15.8
8,5.4
9,305.0
10,15.472687994096558
11,15.491394324641174
12,-0.7172640320093574
13,-0.718177127367642
14,0.39317519670776724
15,0.39317519670776724
16,-1.8618001961750155
17,-1.8618001961750155
18,0.39317519670776724
19,0.39317519670776724
20,-1.861800196175016
21,-1.861800196175016
22,0.0
23,0.08521612133727915
24,0.08522769803842949
25,0.0
26,0.0
27,0.08521467000259908
28,0.08522642187891674
29,0.0
30,34.357394674709255
31,0.0
32,0.0
33,0.0
34,32.39326742753889
35,0.0
36,0.0
37,0.0
38,76.63691668323142
39,102.18255557764189
40,0.0
41,76.64057835519145
42,102.18743780692192
43,0.0
2,1, 7, 1, 0, 9,30.00,45.00,Saturday
7,16.200000000000003
8,5.6
9,307.5
10,15.843465983800293
11,15.867281970405799
12,-0.6803787008725728
13,-0.6815378481787535
14,0.5588668597436466
15,0.5588668597436466
16,-1.9560340091027624
17,-1.9560340091027624
18,0.5588668597436466
19,0.5588668597436466
20,-1.956034009102763
21,-1.956034009102763
22,0.0
23,0.09006293465966851
24,0.09006515601186865
25,0.0
26,0.0
27,0.09006107580818
28,0.09006334149058973
29,0.0
30,39.49869589348735
31,0.0
32,0.0
33,0.0
34,36.85947257000096
35,0.0
36,0.0
37,0.0
38,80.98770123941077
39,107.98360165254769
40,0.0
41,80.99270371574913
42,107.99027162099884
43,0.0
2,1, 7, 1, 0, 9,45.00,60.00,Saturday
7,16.6
8,5.8
9,310.0
10,16.220055048064822
11,16.248991398744003
12,-0.6327302799393901
13,-0.6341310101556643
14,0.7450205073856322
15,0.7450205073856322
16,-2.0488063953104882
17,-2.0488063953104882
18,0.7450205073856322
19,0.7450205073856322
20,-2.0488063953104887
21,-2.0488063953104887
22,0.0
23,0.09499402812781618
24,0.09499441882608799
25,0.0
26,0.0
27,0.09499166802149736
28,0.09499206928021295
29,0.0
30,44.33555170682965
31,0.0
32,0.0
33,0.0
34,40.95796466902689
35,0.0
36,0.0
37,0.0
38,85.41511077860675
39,113.88681437147567
40,0.0
41,85.42152971384408
42,113.89537295179213
43,0.0
2,1, 7, 1, 0,10, 0.00,15.00,Saturday
7,17.025000000000002
8,6.0249999999999995
9,310.0
10,16.61786304185799
11,16.652240977670346
12,-0.6821212008099011
13,-0.6837753776304629
14,0.8028077420260111
15,0.8028077420260111
16,-2.20772129057153
17,-2.20772129057153
18,0.8028077420260111
19,0.8028077420260111
20,-2.207721290571531
21,-2.207721290571531
22,0.0
23,0.09868139310509347
24,0.09868179904675864
25,0.0
26,0.0
27,0.09867848291938477
28,0.09867890109291322
29,0.0
30,49.28005343895029
31,0.0
32,0.0
33,0.0
34,45.117596585619395
35,0.0
36,0.0
37,0.0
38,88.72231249136634
39,118.29641665515513
40,0.0
41,88.73022162039219
42,118.30696216052291
43,0.0
2,1, 7, 1, 0,10,15.00,30.00,Saturday
7,17.450000000000003
8,6.25
9,310.0
10,17.01983610995158
11,17.059552197369918
12,-0.7335665517557608
13,-0.7354669351593349
14,0.8626778346899722
15,0.8626778346899722
16,-2.3723640453974237
17,-2.3723640453974237
18,0.8626778346899722
19,0.8626778346899722
20,-2.372364045397424
21,-2.372364045397424
22,0.0
23,0.1023685305849763
24,0.10236895345628615
25,0.0
26,0.0
27,0.10236504385044028
28,0.10236548057220961
29,0.0
30,53.93320448442517
31,0.0
32,0.0
33,0.0
34,48.95199808362047
35,0.0
36,0.0
37,0.0
38,92.03001001238465
39,122.70668001651288
40,0.0
41,92.03947125245494
42,122.71929500327326
43,0.0
2,1, 7, 1, 0,10,30.00,45.00,Saturday
7,17.875
8,6.4750000000000005
9,310.0
10,17.426175773116547
11,17.47100593080282
12,-0.7870432642631686
13,-0.7891750701207882
14,0.9246246637519625
15,0.9246246637519625
16,-2.542717825317897
17,-2.542717825317897
18,0.9246246637519625
19,0.9246246637519625
20,-2.5427178253178977
21,-2.5427178253178977
22,0.0
23,0.1060554257738506
24,0.10605586704392701
25,0.0
26,0.0
27,0.1060513512058695
28,0.10605180784999535
29,0.0
30,58.213748697138165
31,0.0
32,0.0
33,0.0
34,52.3971347277947
35,0.0
36,0.0
37,0.0
38,95.33837459659006
39,127.11783279545341
40,0.0
41,95.34941998030727
42,127.13255997374304
43,0.0
2,1, 7, 1, 0,10,45.00,60.00,Saturday
7,18.3
8,6.7
9,310.0
10,17.83617303528556
11,17.885802796179266
12,-0.8425229842690046
13,-0.8448677390673796
14,0.9886424493450902
15,0.9886424493450902
16,-2.7187667356989977
17,-2.7187667356989977
18,0.9886424493450902
19,0.9886424493450902
20,-2.7187667356989986
21,-2.7187667356989986
22,0.0
23,0.10974207914776783
24,0.10974254006389744
25,0.0
26,0.0
27,0.10973741533168321
28,0.10973789303206838
29,0.0
30,62.15931865129335
31,0.0
32,0.0
33,0.0
34,55.50587055942816
35,0.0
36,0.0
37,0.0
38,98.64730422869408
39,131.5297389715921
40,0.0
41,98.65993615543098
42,131.54658154057466
43,0.0
2,1, 7, 1, 0,11, 0.00,15.00,Saturday
7,18.25
8,6.825
9,307.5
10,17.85324518374486
11,17.90690922471944
12,-1.0118513448948505
13,-1.014221859738723
14,0.8244897450392136
15,0.8244897450392136
16,-2.8857141076372472
17,-2.8857141076372472
18,0.8244897450392136
19,0.8244897450392136
20,-2.885714107637248
21,-2.885714107637248
22,0.0
23,0.10976624282310647
24,0.10976917650295345
25,0.0
26,0.0